<UPF version="2.0.1">
  <PP_INFO>

# ************************************************************************************* #
# Copyright (c) 2022 Material Physics & Mechanics Group, Georgia Tech                   #
# Distributed under GNU General Public License 3 (GPL) (https://www.gnu.org/licenses/)  #
# Mostafa Faghih Shojaei, John E. Pask, Andrew J. Medford, and Phanish Suryanarayana.   #
# "Soft and transferable pseudopotentials from multi-objective optimization."           #
# arXiv preprint arXiv:2209.09806 (2022). (https://doi.org/10.48550/arXiv.2209.09806)   #
# Acknowledgment: U.S. Department of Energy (DOE), Office of Science (SC): DE-SC0019410 #
# ************************************************************************************* #
# Ecut (1e-3 Ha/atom accuracy):  27 Ha                                                  #
# Ecut (1e-4 Ha/atom accuracy):  32 Ha                                                  #
# Mesh size (1e-3 Ha/atom accuracy, 12th order FD):  0.29 Bohr                          #
# Mesh size (1e-4 Ha/atom accuracy, 12th order FD):  0.27 Bohr                          #
# ************************************************************************************* #

 This pseudopotential file has been produced using the code
 ONCVPSP  (Optimized Norm-Conservinng Vanderbilt PSeudopotential)
 scalar-relativistic version 4.0.1 06/04/2019 by D. R. Hamann
 The code is available through a link at URL www.mat-simresearch.com.
 Documentation with the package provides a full discription of the
 input data below.


 While it is not required under the terms of the GNU GPL, it is
 suggested that you cite D. R. Hamann, Phys. Rev. B 88, 085117 (2013)
 in any publication using these pseudopotentials.

    <PP_INPUTFILE>
# ATOM AND REFERENCE CONFIGURATION
# atsym  z   nc   nv     iexc    psfile
  He  2.00    0    1       4      upf
#
#   n    l    f        energy (Ha)
    1    0    2.00
#
# PSEUDOPOTENTIAL AND OPTIMIZATION
# lmax
    1
#
#   l,   rc,      ep,       ncon, nbas, qcut
    0   1.24687  -0.57931    4    9   8.56270
    1   1.13000   0.05000    4    7   8.65149
#
# LOCAL POTENTIAL
# lloc, lpopt,  rc(5),   dvloc0
    4    5   1.13000      0.00000
#
# VANDERBILT-KLEINMAN-BYLANDER PROJECTORs
# l, nproj, debl
    0    2   1.00000
    1    1   1.00000
#
# MODEL CORE CHARGE
# icmod, fcfact, rcfact
    0   0.00000   0.00000
#
# LOG DERIVATIVE ANALYSIS
# epsh1, epsh2, depsh
  -12.00   12.00    0.02
#
# OUTPUT GRID
# rlmax, drl
    6.00    0.01
#
# TEST CONFIGURATIONS
# ncnf
    0
# nvcnf
#   n    l    f
    </PP_INPUTFILE>
  </PP_INFO>
  <!--                               -->
  <!-- END OF HUMAN READABLE SECTION -->
  <!--                               -->
    <PP_HEADER
       generated="Generated using ONCVPSP code by D. R. Hamann"
       author="anonymous"
       date="220820"
       comment=""
       element="He"
       pseudo_type="NC"
       relativistic="scalar"
       is_ultrasoft="F"
       is_paw="F"
       is_coulomb="F"
       has_so="F"
       has_wfc="F"
       has_gipaw="F"
       core_correction="F"
       functional="PBE"
       z_valence="    2.00"
       total_psenergy="  -5.70666238922E+00"
       rho_cutoff="   7.27000000000E+00"
       l_max="1"
       l_local="-1"
       mesh_size="   728"
       number_of_wfc="1"
       number_of_proj="3"/>
 <PP_MESH>
   <PP_R type="real"  size=" 728" columns="8">
    0.0000    0.0100    0.0200    0.0300    0.0400    0.0500    0.0600    0.0700
    0.0800    0.0900    0.1000    0.1100    0.1200    0.1300    0.1400    0.1500
    0.1600    0.1700    0.1800    0.1900    0.2000    0.2100    0.2200    0.2300
    0.2400    0.2500    0.2600    0.2700    0.2800    0.2900    0.3000    0.3100
    0.3200    0.3300    0.3400    0.3500    0.3600    0.3700    0.3800    0.3900
    0.4000    0.4100    0.4200    0.4300    0.4400    0.4500    0.4600    0.4700
    0.4800    0.4900    0.5000    0.5100    0.5200    0.5300    0.5400    0.5500
    0.5600    0.5700    0.5800    0.5900    0.6000    0.6100    0.6200    0.6300
    0.6400    0.6500    0.6600    0.6700    0.6800    0.6900    0.7000    0.7100
    0.7200    0.7300    0.7400    0.7500    0.7600    0.7700    0.7800    0.7900
    0.8000    0.8100    0.8200    0.8300    0.8400    0.8500    0.8600    0.8700
    0.8800    0.8900    0.9000    0.9100    0.9200    0.9300    0.9400    0.9500
    0.9600    0.9700    0.9800    0.9900    1.0000    1.0100    1.0200    1.0300
    1.0400    1.0500    1.0600    1.0700    1.0800    1.0900    1.1000    1.1100
    1.1200    1.1300    1.1400    1.1500    1.1600    1.1700    1.1800    1.1900
    1.2000    1.2100    1.2200    1.2300    1.2400    1.2500    1.2600    1.2700
    1.2800    1.2900    1.3000    1.3100    1.3200    1.3300    1.3400    1.3500
    1.3600    1.3700    1.3800    1.3900    1.4000    1.4100    1.4200    1.4300
    1.4400    1.4500    1.4600    1.4700    1.4800    1.4900    1.5000    1.5100
    1.5200    1.5300    1.5400    1.5500    1.5600    1.5700    1.5800    1.5900
    1.6000    1.6100    1.6200    1.6300    1.6400    1.6500    1.6600    1.6700
    1.6800    1.6900    1.7000    1.7100    1.7200    1.7300    1.7400    1.7500
    1.7600    1.7700    1.7800    1.7900    1.8000    1.8100    1.8200    1.8300
    1.8400    1.8500    1.8600    1.8700    1.8800    1.8900    1.9000    1.9100
    1.9200    1.9300    1.9400    1.9500    1.9600    1.9700    1.9800    1.9900
    2.0000    2.0100    2.0200    2.0300    2.0400    2.0500    2.0600    2.0700
    2.0800    2.0900    2.1000    2.1100    2.1200    2.1300    2.1400    2.1500
    2.1600    2.1700    2.1800    2.1900    2.2000    2.2100    2.2200    2.2300
    2.2400    2.2500    2.2600    2.2700    2.2800    2.2900    2.3000    2.3100
    2.3200    2.3300    2.3400    2.3500    2.3600    2.3700    2.3800    2.3900
    2.4000    2.4100    2.4200    2.4300    2.4400    2.4500    2.4600    2.4700
    2.4800    2.4900    2.5000    2.5100    2.5200    2.5300    2.5400    2.5500
    2.5600    2.5700    2.5800    2.5900    2.6000    2.6100    2.6200    2.6300
    2.6400    2.6500    2.6600    2.6700    2.6800    2.6900    2.7000    2.7100
    2.7200    2.7300    2.7400    2.7500    2.7600    2.7700    2.7800    2.7900
    2.8000    2.8100    2.8200    2.8300    2.8400    2.8500    2.8600    2.8700
    2.8800    2.8900    2.9000    2.9100    2.9200    2.9300    2.9400    2.9500
    2.9600    2.9700    2.9800    2.9900    3.0000    3.0100    3.0200    3.0300
    3.0400    3.0500    3.0600    3.0700    3.0800    3.0900    3.1000    3.1100
    3.1200    3.1300    3.1400    3.1500    3.1600    3.1700    3.1800    3.1900
    3.2000    3.2100    3.2200    3.2300    3.2400    3.2500    3.2600    3.2700
    3.2800    3.2900    3.3000    3.3100    3.3200    3.3300    3.3400    3.3500
    3.3600    3.3700    3.3800    3.3900    3.4000    3.4100    3.4200    3.4300
    3.4400    3.4500    3.4600    3.4700    3.4800    3.4900    3.5000    3.5100
    3.5200    3.5300    3.5400    3.5500    3.5600    3.5700    3.5800    3.5900
    3.6000    3.6100    3.6200    3.6300    3.6400    3.6500    3.6600    3.6700
    3.6800    3.6900    3.7000    3.7100    3.7200    3.7300    3.7400    3.7500
    3.7600    3.7700    3.7800    3.7900    3.8000    3.8100    3.8200    3.8300
    3.8400    3.8500    3.8600    3.8700    3.8800    3.8900    3.9000    3.9100
    3.9200    3.9300    3.9400    3.9500    3.9600    3.9700    3.9800    3.9900
    4.0000    4.0100    4.0200    4.0300    4.0400    4.0500    4.0600    4.0700
    4.0800    4.0900    4.1000    4.1100    4.1200    4.1300    4.1400    4.1500
    4.1600    4.1700    4.1800    4.1900    4.2000    4.2100    4.2200    4.2300
    4.2400    4.2500    4.2600    4.2700    4.2800    4.2900    4.3000    4.3100
    4.3200    4.3300    4.3400    4.3500    4.3600    4.3700    4.3800    4.3900
    4.4000    4.4100    4.4200    4.4300    4.4400    4.4500    4.4600    4.4700
    4.4800    4.4900    4.5000    4.5100    4.5200    4.5300    4.5400    4.5500
    4.5600    4.5700    4.5800    4.5900    4.6000    4.6100    4.6200    4.6300
    4.6400    4.6500    4.6600    4.6700    4.6800    4.6900    4.7000    4.7100
    4.7200    4.7300    4.7400    4.7500    4.7600    4.7700    4.7800    4.7900
    4.8000    4.8100    4.8200    4.8300    4.8400    4.8500    4.8600    4.8700
    4.8800    4.8900    4.9000    4.9100    4.9200    4.9300    4.9400    4.9500
    4.9600    4.9700    4.9800    4.9900    5.0000    5.0100    5.0200    5.0300
    5.0400    5.0500    5.0600    5.0700    5.0800    5.0900    5.1000    5.1100
    5.1200    5.1300    5.1400    5.1500    5.1600    5.1700    5.1800    5.1900
    5.2000    5.2100    5.2200    5.2300    5.2400    5.2500    5.2600    5.2700
    5.2800    5.2900    5.3000    5.3100    5.3200    5.3300    5.3400    5.3500
    5.3600    5.3700    5.3800    5.3900    5.4000    5.4100    5.4200    5.4300
    5.4400    5.4500    5.4600    5.4700    5.4800    5.4900    5.5000    5.5100
    5.5200    5.5300    5.5400    5.5500    5.5600    5.5700    5.5800    5.5900
    5.6000    5.6100    5.6200    5.6300    5.6400    5.6500    5.6600    5.6700
    5.6800    5.6900    5.7000    5.7100    5.7200    5.7300    5.7400    5.7500
    5.7600    5.7700    5.7800    5.7900    5.8000    5.8100    5.8200    5.8300
    5.8400    5.8500    5.8600    5.8700    5.8800    5.8900    5.9000    5.9100
    5.9200    5.9300    5.9400    5.9500    5.9600    5.9700    5.9800    5.9900
    6.0000    6.0100    6.0200    6.0300    6.0400    6.0500    6.0600    6.0700
    6.0800    6.0900    6.1000    6.1100    6.1200    6.1300    6.1400    6.1500
    6.1600    6.1700    6.1800    6.1900    6.2000    6.2100    6.2200    6.2300
    6.2400    6.2500    6.2600    6.2700    6.2800    6.2900    6.3000    6.3100
    6.3200    6.3300    6.3400    6.3500    6.3600    6.3700    6.3800    6.3900
    6.4000    6.4100    6.4200    6.4300    6.4400    6.4500    6.4600    6.4700
    6.4800    6.4900    6.5000    6.5100    6.5200    6.5300    6.5400    6.5500
    6.5600    6.5700    6.5800    6.5900    6.6000    6.6100    6.6200    6.6300
    6.6400    6.6500    6.6600    6.6700    6.6800    6.6900    6.7000    6.7100
    6.7200    6.7300    6.7400    6.7500    6.7600    6.7700    6.7800    6.7900
    6.8000    6.8100    6.8200    6.8300    6.8400    6.8500    6.8600    6.8700
    6.8800    6.8900    6.9000    6.9100    6.9200    6.9300    6.9400    6.9500
    6.9600    6.9700    6.9800    6.9900    7.0000    7.0100    7.0200    7.0300
    7.0400    7.0500    7.0600    7.0700    7.0800    7.0900    7.1000    7.1100
    7.1200    7.1300    7.1400    7.1500    7.1600    7.1700    7.1800    7.1900
    7.2000    7.2100    7.2200    7.2300    7.2400    7.2500    7.2600    7.2700
   </PP_R>
   <PP_RAB type="real"  size=" 728" columns="8">
    0.0100    0.0100    0.0100    0.0100    0.0100    0.0100    0.0100    0.0100
    0.0100    0.0100    0.0100    0.0100    0.0100    0.0100    0.0100    0.0100
    0.0100    0.0100    0.0100    0.0100    0.0100    0.0100    0.0100    0.0100
    0.0100    0.0100    0.0100    0.0100    0.0100    0.0100    0.0100    0.0100
    0.0100    0.0100    0.0100    0.0100    0.0100    0.0100    0.0100    0.0100
    0.0100    0.0100    0.0100    0.0100    0.0100    0.0100    0.0100    0.0100
    0.0100    0.0100    0.0100    0.0100    0.0100    0.0100    0.0100    0.0100
    0.0100    0.0100    0.0100    0.0100    0.0100    0.0100    0.0100    0.0100
    0.0100    0.0100    0.0100    0.0100    0.0100    0.0100    0.0100    0.0100
    0.0100    0.0100    0.0100    0.0100    0.0100    0.0100    0.0100    0.0100
    0.0100    0.0100    0.0100    0.0100    0.0100    0.0100    0.0100    0.0100
    0.0100    0.0100    0.0100    0.0100    0.0100    0.0100    0.0100    0.0100
    0.0100    0.0100    0.0100    0.0100    0.0100    0.0100    0.0100    0.0100
    0.0100    0.0100    0.0100    0.0100    0.0100    0.0100    0.0100    0.0100
    0.0100    0.0100    0.0100    0.0100    0.0100    0.0100    0.0100    0.0100
    0.0100    0.0100    0.0100    0.0100    0.0100    0.0100    0.0100    0.0100
    0.0100    0.0100    0.0100    0.0100    0.0100    0.0100    0.0100    0.0100
    0.0100    0.0100    0.0100    0.0100    0.0100    0.0100    0.0100    0.0100
    0.0100    0.0100    0.0100    0.0100    0.0100    0.0100    0.0100    0.0100
    0.0100    0.0100    0.0100    0.0100    0.0100    0.0100    0.0100    0.0100
    0.0100    0.0100    0.0100    0.0100    0.0100    0.0100    0.0100    0.0100
    0.0100    0.0100    0.0100    0.0100    0.0100    0.0100    0.0100    0.0100
    0.0100    0.0100    0.0100    0.0100    0.0100    0.0100    0.0100    0.0100
    0.0100    0.0100    0.0100    0.0100    0.0100    0.0100    0.0100    0.0100
    0.0100    0.0100    0.0100    0.0100    0.0100    0.0100    0.0100    0.0100
    0.0100    0.0100    0.0100    0.0100    0.0100    0.0100    0.0100    0.0100
    0.0100    0.0100    0.0100    0.0100    0.0100    0.0100    0.0100    0.0100
    0.0100    0.0100    0.0100    0.0100    0.0100    0.0100    0.0100    0.0100
    0.0100    0.0100    0.0100    0.0100    0.0100    0.0100    0.0100    0.0100
    0.0100    0.0100    0.0100    0.0100    0.0100    0.0100    0.0100    0.0100
    0.0100    0.0100    0.0100    0.0100    0.0100    0.0100    0.0100    0.0100
    0.0100    0.0100    0.0100    0.0100    0.0100    0.0100    0.0100    0.0100
    0.0100    0.0100    0.0100    0.0100    0.0100    0.0100    0.0100    0.0100
    0.0100    0.0100    0.0100    0.0100    0.0100    0.0100    0.0100    0.0100
    0.0100    0.0100    0.0100    0.0100    0.0100    0.0100    0.0100    0.0100
    0.0100    0.0100    0.0100    0.0100    0.0100    0.0100    0.0100    0.0100
    0.0100    0.0100    0.0100    0.0100    0.0100    0.0100    0.0100    0.0100
    0.0100    0.0100    0.0100    0.0100    0.0100    0.0100    0.0100    0.0100
    0.0100    0.0100    0.0100    0.0100    0.0100    0.0100    0.0100    0.0100
    0.0100    0.0100    0.0100    0.0100    0.0100    0.0100    0.0100    0.0100
    0.0100    0.0100    0.0100    0.0100    0.0100    0.0100    0.0100    0.0100
    0.0100    0.0100    0.0100    0.0100    0.0100    0.0100    0.0100    0.0100
    0.0100    0.0100    0.0100    0.0100    0.0100    0.0100    0.0100    0.0100
    0.0100    0.0100    0.0100    0.0100    0.0100    0.0100    0.0100    0.0100
    0.0100    0.0100    0.0100    0.0100    0.0100    0.0100    0.0100    0.0100
    0.0100    0.0100    0.0100    0.0100    0.0100    0.0100    0.0100    0.0100
    0.0100    0.0100    0.0100    0.0100    0.0100    0.0100    0.0100    0.0100
    0.0100    0.0100    0.0100    0.0100    0.0100    0.0100    0.0100    0.0100
    0.0100    0.0100    0.0100    0.0100    0.0100    0.0100    0.0100    0.0100
    0.0100    0.0100    0.0100    0.0100    0.0100    0.0100    0.0100    0.0100
    0.0100    0.0100    0.0100    0.0100    0.0100    0.0100    0.0100    0.0100
    0.0100    0.0100    0.0100    0.0100    0.0100    0.0100    0.0100    0.0100
    0.0100    0.0100    0.0100    0.0100    0.0100    0.0100    0.0100    0.0100
    0.0100    0.0100    0.0100    0.0100    0.0100    0.0100    0.0100    0.0100
    0.0100    0.0100    0.0100    0.0100    0.0100    0.0100    0.0100    0.0100
    0.0100    0.0100    0.0100    0.0100    0.0100    0.0100    0.0100    0.0100
    0.0100    0.0100    0.0100    0.0100    0.0100    0.0100    0.0100    0.0100
    0.0100    0.0100    0.0100    0.0100    0.0100    0.0100    0.0100    0.0100
    0.0100    0.0100    0.0100    0.0100    0.0100    0.0100    0.0100    0.0100
    0.0100    0.0100    0.0100    0.0100    0.0100    0.0100    0.0100    0.0100
    0.0100    0.0100    0.0100    0.0100    0.0100    0.0100    0.0100    0.0100
    0.0100    0.0100    0.0100    0.0100    0.0100    0.0100    0.0100    0.0100
    0.0100    0.0100    0.0100    0.0100    0.0100    0.0100    0.0100    0.0100
    0.0100    0.0100    0.0100    0.0100    0.0100    0.0100    0.0100    0.0100
    0.0100    0.0100    0.0100    0.0100    0.0100    0.0100    0.0100    0.0100
    0.0100    0.0100    0.0100    0.0100    0.0100    0.0100    0.0100    0.0100
    0.0100    0.0100    0.0100    0.0100    0.0100    0.0100    0.0100    0.0100
    0.0100    0.0100    0.0100    0.0100    0.0100    0.0100    0.0100    0.0100
    0.0100    0.0100    0.0100    0.0100    0.0100    0.0100    0.0100    0.0100
    0.0100    0.0100    0.0100    0.0100    0.0100    0.0100    0.0100    0.0100
    0.0100    0.0100    0.0100    0.0100    0.0100    0.0100    0.0100    0.0100
    0.0100    0.0100    0.0100    0.0100    0.0100    0.0100    0.0100    0.0100
    0.0100    0.0100    0.0100    0.0100    0.0100    0.0100    0.0100    0.0100
    0.0100    0.0100    0.0100    0.0100    0.0100    0.0100    0.0100    0.0100
    0.0100    0.0100    0.0100    0.0100    0.0100    0.0100    0.0100    0.0100
    0.0100    0.0100    0.0100    0.0100    0.0100    0.0100    0.0100    0.0100
    0.0100    0.0100    0.0100    0.0100    0.0100    0.0100    0.0100    0.0100
    0.0100    0.0100    0.0100    0.0100    0.0100    0.0100    0.0100    0.0100
    0.0100    0.0100    0.0100    0.0100    0.0100    0.0100    0.0100    0.0100
    0.0100    0.0100    0.0100    0.0100    0.0100    0.0100    0.0100    0.0100
    0.0100    0.0100    0.0100    0.0100    0.0100    0.0100    0.0100    0.0100
    0.0100    0.0100    0.0100    0.0100    0.0100    0.0100    0.0100    0.0100
    0.0100    0.0100    0.0100    0.0100    0.0100    0.0100    0.0100    0.0100
    0.0100    0.0100    0.0100    0.0100    0.0100    0.0100    0.0100    0.0100
    0.0100    0.0100    0.0100    0.0100    0.0100    0.0100    0.0100    0.0100
    0.0100    0.0100    0.0100    0.0100    0.0100    0.0100    0.0100    0.0100
    0.0100    0.0100    0.0100    0.0100    0.0100    0.0100    0.0100    0.0100
    0.0100    0.0100    0.0100    0.0100    0.0100    0.0100    0.0100    0.0100
    0.0100    0.0100    0.0100    0.0100    0.0100    0.0100    0.0100    0.0100
    0.0100    0.0100    0.0100    0.0100    0.0100    0.0100    0.0100    0.0100
    0.0100    0.0100    0.0100    0.0100    0.0100    0.0100    0.0100    0.0100
   </PP_RAB>
 </PP_MESH>
  <PP_LOCAL type="real"  size=" 728" columns="4">
   -7.9967220920E+00   -7.9956390610E+00   -7.9923948070E+00   -7.9870054483E+00
   -7.9794971182E+00   -7.9699054992E+00   -7.9582749736E+00   -7.9446576063E+00
   -7.9291120058E+00   -7.9117021152E+00   -7.8924959816E+00   -7.8715645522E+00
   -7.8489805370E+00   -7.8248173695E+00   -7.7991482934E+00   -7.7720455867E+00
   -7.7435799333E+00   -7.7138199405E+00   -7.6828317944E+00   -7.6506790428E+00
   -7.6174224894E+00   -7.5831201805E+00   -7.5478274677E+00   -7.5115971257E+00
   -7.4744795095E+00   -7.4365227336E+00   -7.3977728606E+00   -7.3582740856E+00
   -7.3180689093E+00   -7.2771982899E+00   -7.2357017715E+00   -7.1936175841E+00
   -7.1509827147E+00   -7.1078329496E+00   -7.0642028904E+00   -7.0201259451E+00
   -6.9756342985E+00   -6.9307588666E+00   -6.8855292386E+00   -6.8399736121E+00
   -6.7941187259E+00   -6.7479897957E+00   -6.7016104569E+00   -6.6550027185E+00
   -6.6081869326E+00   -6.5611817820E+00   -6.5140042883E+00   -6.4666698432E+00
   -6.4191922632E+00   -6.3715838681E+00   -6.3238555834E+00   -6.2760170642E+00
   -6.2280768406E+00   -6.1800424794E+00   -6.1319207607E+00   -6.0837178655E+00
   -6.0354395690E+00   -5.9870914368E+00   -5.9386790187E+00   -5.8902080354E+00
   -5.8416845547E+00   -5.7931151529E+00   -5.7445070572E+00   -5.6958682679E+00
   -5.6472076557E+00   -5.5985350348E+00   -5.5498612094E+00   -5.5011979942E+00
   -5.4525582086E+00   -5.4039556471E+00   -5.3554050276E+00   -5.3069219182E+00
   -5.2585226491E+00   -5.2102242084E+00   -5.1620441299E+00   -5.1140003724E+00
   -5.0661111973E+00   -5.0183950454E+00   -4.9708704187E+00   -4.9235557672E+00
   -4.8764693851E+00   -4.8296293179E+00   -4.7830532800E+00   -4.7367585868E+00
   -4.6907620971E+00   -4.6450801697E+00   -4.5997286304E+00   -4.5547227494E+00
   -4.5100772279E+00   -4.4658061924E+00   -4.4219231950E+00   -4.3784412196E+00
   -4.3353726915E+00   -4.2927294925E+00   -4.2505229781E+00   -4.2087640004E+00
   -4.1674629335E+00   -4.1266297054E+00   -4.0862738326E+00   -4.0464044597E+00
   -4.0070304023E+00   -3.9681601894E+00   -3.9298021045E+00   -3.8919642185E+00
   -3.8546544104E+00   -3.8178803679E+00   -3.7816495611E+00   -3.7459691812E+00
   -3.7108460367E+00   -3.6762864011E+00   -3.6422958081E+00   -3.6088787912E+00
   -3.5760385701E+00   -3.5437766905E+00   -3.5120926954E+00   -3.4809845920E+00
   -3.4504493696E+00   -3.4204826801E+00   -3.3910784623E+00   -3.3622286207E+00
   -3.3339227717E+00   -3.3061481336E+00   -3.2788895045E+00   -3.2521292972E+00
   -3.2258477878E+00   -3.2000231415E+00   -3.1746260779E+00   -3.1496285590E+00
   -3.1250218828E+00   -3.1007966615E+00   -3.0769441416E+00   -3.0534557859E+00
   -3.0303233178E+00   -3.0075387095E+00   -2.9850941730E+00   -2.9629821511E+00
   -2.9411953086E+00   -2.9197265249E+00   -2.8985688853E+00   -2.8777156746E+00
   -2.8571603690E+00   -2.8368966302E+00   -2.8169182981E+00   -2.7972193851E+00
   -2.7777940699E+00   -2.7586366918E+00   -2.7397417451E+00   -2.7211038741E+00
   -2.7027178677E+00   -2.6845786547E+00   -2.6666812992E+00   -2.6490209961E+00
   -2.6315930666E+00   -2.6143929544E+00   -2.5974162215E+00   -2.5806585443E+00
   -2.5641157102E+00   -2.5477836139E+00   -2.5316582541E+00   -2.5157357300E+00
   -2.5000122385E+00   -2.4844840709E+00   -2.4691476100E+00   -2.4539993276E+00
   -2.4390357814E+00   -2.4242536124E+00   -2.4096495429E+00   -2.3952203735E+00
   -2.3809629808E+00   -2.3668743158E+00   -2.3529514008E+00   -2.3391913279E+00
   -2.3255912570E+00   -2.3121484134E+00   -2.2988600864E+00   -2.2857236271E+00
   -2.2727364468E+00   -2.2598960155E+00   -2.2471998599E+00   -2.2346455620E+00
   -2.2222307576E+00   -2.2099531345E+00   -2.1978104316E+00   -2.1858004371E+00
   -2.1739209874E+00   -2.1621699654E+00   -2.1505452999E+00   -2.1390449637E+00
   -2.1276669729E+00   -2.1164093855E+00   -2.1052703005E+00   -2.0942478565E+00
   -2.0833402311E+00   -2.0725456395E+00   -2.0618623339E+00   -2.0512886021E+00
   -2.0408227670E+00   -2.0304631856E+00   -2.0202082479E+00   -2.0100563764E+00
   -2.0000060252E+00   -1.9900556790E+00   -1.9802038526E+00   -1.9704490901E+00
   -1.9607899641E+00   -1.9512250749E+00   -1.9417530504E+00   -1.9323725445E+00
   -1.9230822373E+00   -1.9138808341E+00   -1.9047670648E+00   -1.8957396835E+00
   -1.8867974677E+00   -1.8779392178E+00   -1.8691637568E+00   -1.8604699295E+00
   -1.8518566020E+00   -1.8433226615E+00   -1.8348670155E+00   -1.8264885914E+00
   -1.8181863362E+00   -1.8099592159E+00   -1.8018062152E+00   -1.7937263369E+00
   -1.7857186017E+00   -1.7777820477E+00   -1.7699157300E+00   -1.7621187203E+00
   -1.7543901067E+00   -1.7467289931E+00   -1.7391344991E+00   -1.7316057594E+00
   -1.7241419238E+00   -1.7167421567E+00   -1.7094056364E+00   -1.7021315558E+00
   -1.6949191209E+00   -1.6877675515E+00   -1.6806760803E+00   -1.6736439530E+00
   -1.6666704276E+00   -1.6597547748E+00   -1.6528962770E+00   -1.6460942286E+00
   -1.6393479355E+00   -1.6326567151E+00   -1.6260198956E+00   -1.6194368163E+00
   -1.6129068271E+00   -1.6064292883E+00   -1.6000035705E+00   -1.5936290543E+00
   -1.5873051301E+00   -1.5810311981E+00   -1.5748066677E+00   -1.5686309576E+00
   -1.5625034959E+00   -1.5564237192E+00   -1.5503910730E+00   -1.5444050115E+00
   -1.5384649970E+00   -1.5325705003E+00   -1.5267210002E+00   -1.5209159833E+00
   -1.5151549442E+00   -1.5094373850E+00   -1.5037628152E+00   -1.4981307519E+00
   -1.4925407192E+00   -1.4869922484E+00   -1.4814848775E+00   -1.4760181517E+00
   -1.4705916226E+00   -1.4652048485E+00   -1.4598573941E+00   -1.4545488304E+00
   -1.4492787347E+00   -1.4440466903E+00   -1.4388522867E+00   -1.4336951190E+00
   -1.4285747884E+00   -1.4234909014E+00   -1.4184430704E+00   -1.4134309132E+00
   -1.4084540529E+00   -1.4035121179E+00   -1.3986047420E+00   -1.3937315637E+00
   -1.3888922270E+00   -1.3840863805E+00   -1.3793136777E+00   -1.3745737769E+00
   -1.3698663412E+00   -1.3651910380E+00   -1.3605475396E+00   -1.3559355224E+00
   -1.3513546675E+00   -1.3468046599E+00   -1.3422851892E+00   -1.3377959490E+00
   -1.3333366369E+00   -1.3289069547E+00   -1.3245066080E+00   -1.3201353064E+00
   -1.3157927632E+00   -1.3114786956E+00   -1.3071928243E+00   -1.3029348739E+00
   -1.2987045723E+00   -1.2945016512E+00   -1.2903258456E+00   -1.2861768939E+00
   -1.2820545378E+00   -1.2779585225E+00   -1.2738885963E+00   -1.2698445107E+00
   -1.2658260205E+00   -1.2618328833E+00   -1.2578648600E+00   -1.2539217144E+00
   -1.2500032134E+00   -1.2461091264E+00   -1.2422392262E+00   -1.2383932880E+00
   -1.2345710900E+00   -1.2307724130E+00   -1.2269970407E+00   -1.2232447591E+00
   -1.2195153571E+00   -1.2158086260E+00   -1.2121243598E+00   -1.2084623548E+00
   -1.2048224100E+00   -1.2012043265E+00   -1.1976079080E+00   -1.1940329604E+00
   -1.1904792922E+00   -1.1869467138E+00   -1.1834350380E+00   -1.1799440799E+00
   -1.1764736567E+00   -1.1730235878E+00   -1.1695936944E+00   -1.1661838004E+00
   -1.1627937311E+00   -1.1594233142E+00   -1.1560723793E+00   -1.1527407580E+00
   -1.1494282838E+00   -1.1461347921E+00   -1.1428601203E+00   -1.1396041073E+00
   -1.1363665943E+00   -1.1331474240E+00   -1.1299464409E+00   -1.1267634914E+00
   -1.1235984235E+00   -1.1204510869E+00   -1.1173213331E+00   -1.1142090151E+00
   -1.1111139876E+00   -1.1080361069E+00   -1.1049752310E+00   -1.1019312192E+00
   -1.0989039327E+00   -1.0958932340E+00   -1.0928989870E+00   -1.0899210573E+00
   -1.0869593119E+00   -1.0840136192E+00   -1.0810838490E+00   -1.0781698726E+00
   -1.0752715627E+00   -1.0723887932E+00   -1.0695214395E+00   -1.0666693782E+00
   -1.0638324873E+00   -1.0610106462E+00   -1.0582037353E+00   -1.0554116366E+00
   -1.0526342330E+00   -1.0498714088E+00   -1.0471230496E+00   -1.0443890421E+00
   -1.0416692741E+00   -1.0389636347E+00   -1.0362720140E+00   -1.0335943035E+00
   -1.0309303955E+00   -1.0282801836E+00   -1.0256435625E+00   -1.0230204278E+00
   -1.0204106764E+00   -1.0178142061E+00   -1.0152309158E+00   -1.0126607054E+00
   -1.0101034758E+00   -1.0075591288E+00   -1.0050275675E+00   -1.0025086956E+00
   -1.0000024181E+00   -9.9750864058E-01   -9.9502726989E-01   -9.9255821364E-01
   -9.9010138039E-01   -9.8765667959E-01   -9.8522402160E-01   -9.8280331765E-01
   -9.8039447985E-01   -9.7799742116E-01   -9.7561205539E-01   -9.7323829720E-01
   -9.7087606206E-01   -9.6852526627E-01   -9.6618582694E-01   -9.6385766198E-01
   -9.6154069008E-01   -9.5923483072E-01   -9.5694000414E-01   -9.5465613136E-01
   -9.5238313412E-01   -9.5012093494E-01   -9.4786945704E-01   -9.4562862441E-01
   -9.4339836171E-01   -9.4117859433E-01   -9.3896924837E-01   -9.3677025060E-01
   -9.3458152851E-01   -9.3240301022E-01   -9.3023462454E-01   -9.2807630096E-01
   -9.2592796960E-01   -9.2378956123E-01   -9.2166100725E-01   -9.1954223970E-01
   -9.1743319126E-01   -9.1533379519E-01   -9.1324398539E-01   -9.1116369635E-01
   -9.0909286315E-01   -9.0703142147E-01   -9.0497930757E-01   -9.0293645828E-01
   -9.0090281099E-01   -8.9887830369E-01   -8.9686287488E-01   -8.9485646364E-01
   -8.9285900959E-01   -8.9087045287E-01   -8.8889073417E-01   -8.8691979470E-01
   -8.8495757620E-01   -8.8300402091E-01   -8.8105907159E-01   -8.7912267148E-01
   -8.7719476436E-01   -8.7527529446E-01   -8.7336420652E-01   -8.7146144576E-01
   -8.6956695787E-01   -8.6768068902E-01   -8.6580258583E-01   -8.6393259539E-01
   -8.6207066526E-01   -8.6021674343E-01   -8.5837077835E-01   -8.5653271890E-01
   -8.5470251440E-01   -8.5288011462E-01   -8.5106546973E-01   -8.4925853034E-01
   -8.4745924748E-01   -8.4566757258E-01   -8.4388345750E-01   -8.4210685448E-01
   -8.4033771619E-01   -8.3857599567E-01   -8.3682164637E-01   -8.3507462213E-01
   -8.3333487716E-01   -8.3160236606E-01   -8.2987704382E-01   -8.2815886577E-01
   -8.2644778763E-01   -8.2474376550E-01   -8.2304675581E-01   -8.2135671536E-01
   -8.1967360132E-01   -8.1799737119E-01   -8.1632798283E-01   -8.1466539442E-01
   -8.1300956452E-01   -8.1136045198E-01   -8.0971801603E-01   -8.0808221618E-01
   -8.0645301232E-01   -8.0483036462E-01   -8.0321423358E-01   -8.0160458004E-01
   -8.0000136512E-01   -7.9840455027E-01   -7.9681409724E-01   -7.9522996809E-01
   -7.9365212518E-01   -7.9208053117E-01   -7.9051514900E-01   -7.8895594192E-01
   -7.8740287346E-01   -7.8585590745E-01   -7.8431500798E-01   -7.8278013944E-01
   -7.8125126649E-01   -7.7972835407E-01   -7.7821136740E-01   -7.7670027195E-01
   -7.7519503347E-01   -7.7369561797E-01   -7.7220199174E-01   -7.7071412131E-01
   -7.6923197347E-01   -7.6775551527E-01   -7.6628471401E-01   -7.6481953724E-01
   -7.6335995276E-01   -7.6190592862E-01   -7.6045743311E-01   -7.5901443474E-01
   -7.5757690229E-01   -7.5614480476E-01   -7.5471811138E-01   -7.5329679163E-01
   -7.5188081520E-01   -7.5047015202E-01   -7.4906477223E-01   -7.4766464621E-01
   -7.4626974456E-01   -7.4488003809E-01   -7.4349549783E-01   -7.4211609502E-01
   -7.4074180113E-01   -7.3937258782E-01   -7.3800842697E-01   -7.3664929067E-01
   -7.3529515121E-01   -7.3394598108E-01   -7.3260175298E-01   -7.3126243981E-01
   -7.2992801466E-01   -7.2859845082E-01   -7.2727372176E-01   -7.2595380118E-01
   -7.2463866293E-01   -7.2332828108E-01   -7.2202262986E-01   -7.2072168370E-01
   -7.1942541722E-01   -7.1813380522E-01   -7.1684682266E-01   -7.1556444470E-01
   -7.1428664669E-01   -7.1301340411E-01   -7.1174469267E-01   -7.1048048820E-01
   -7.0922076675E-01   -7.0796550450E-01   -7.0671467782E-01   -7.0546826324E-01
   -7.0422623747E-01   -7.0298857735E-01   -7.0175525991E-01   -7.0052626234E-01
   -6.9930156197E-01   -6.9808113632E-01   -6.9686496304E-01   -6.9565301994E-01