<UPF version="2.0.1">
  <PP_INFO>

# ************************************************************************************* #
# Copyright (c) 2022 Material Physics & Mechanics Group, Georgia Tech                   #
# Distributed under GNU General Public License 3 (GPL) (https://www.gnu.org/licenses/)  #
# Mostafa Faghih Shojaei, John E. Pask, Andrew J. Medford, and Phanish Suryanarayana.   #
# "Soft and transferable pseudopotentials from multi-objective optimization."           #
# arXiv preprint arXiv:2209.09806 (2022). (https://doi.org/10.48550/arXiv.2209.09806)   #
# Acknowledgment: U.S. Department of Energy (DOE), Office of Science (SC): DE-SC0019410 #
# ************************************************************************************* #
# Ecut (1e-3 Ha/atom accuracy):  33 Ha                                                  #
# Ecut (1e-4 Ha/atom accuracy):  37 Ha                                                  #
# Mesh size (1e-3 Ha/atom accuracy, 12th order FD):  0.27 Bohr                          #
# Mesh size (1e-4 Ha/atom accuracy, 12th order FD):  0.25 Bohr                          #
# ************************************************************************************* #

 This pseudopotential file has been produced using the code
 ONCVPSP  (Optimized Norm-Conservinng Vanderbilt PSeudopotential)
 scalar-relativistic version 4.0.1 06/04/2019 by D. R. Hamann
 The code is available through a link at URL www.mat-simresearch.com.
 Documentation with the package provides a full discription of the
 input data below.


 While it is not required under the terms of the GNU GPL, it is
 suggested that you cite D. R. Hamann, Phys. Rev. B 88, 085117 (2013)
 in any publication using these pseudopotentials.

    <PP_INPUTFILE>
# ATOM AND REFERENCE CONFIGURATION
# atsym  z   nc   nv     iexc    psfile
  F  9.00    1    2       4      upf
#
#   n    l    f        energy (Ha)
    1    0    2.00
    2    0    2.00
    2    1    5.00
#
# PSEUDOPOTENTIAL AND OPTIMIZATION
# lmax
    2
#
#   l,   rc,      ep,       ncon, nbas, qcut
    0   1.52000   0.00000    4    8   8.00000
    1   1.52000   0.00000    4    8   8.90000
    2   1.52000   0.10000    4    8   8.90000
#
# LOCAL POTENTIAL
# lloc, lpopt,  rc(5),   dvloc0
    4    5   0.67613      0.00000
#
# VANDERBILT-KLEINMAN-BYLANDER PROJECTORs
# l, nproj, debl
    0    2   1.50000
    1    2   1.50000
    2    1   2.00000
#
# MODEL CORE CHARGE
# icmod, fcfact, rcfact
    3   2.50000   1.85000
#
# LOG DERIVATIVE ANALYSIS
# epsh1, epsh2, depsh
  -12.00   12.00    0.02
#
# OUTPUT GRID
# rlmax, drl
    6.00    0.01
#
# TEST CONFIGURATIONS
# ncnf
    0
# nvcnf
#   n    l    f
    </PP_INPUTFILE>
  </PP_INFO>
  <!--                               -->
  <!-- END OF HUMAN READABLE SECTION -->
  <!--                               -->
    <PP_HEADER
       generated="Generated using ONCVPSP code by D. R. Hamann"
       author="anonymous"
       date="220820"
       comment=""
       element="F "
       pseudo_type="NC"
       relativistic="scalar"
       is_ultrasoft="F"
       is_paw="F"
       is_coulomb="F"
       has_so="F"
       has_wfc="F"
       has_gipaw="F"
       core_correction="T"
       functional="PBE"
       z_valence="    7.00"
       total_psenergy="  -4.77090383417E+01"
       rho_cutoff="   8.33000000000E+00"
       l_max="2"
       l_local="-1"
       mesh_size="   834"
       number_of_wfc="2"
       number_of_proj="5"/>
 <PP_MESH>
   <PP_R type="real"  size=" 834" columns="8">
    0.0000    0.0100    0.0200    0.0300    0.0400    0.0500    0.0600    0.0700
    0.0800    0.0900    0.1000    0.1100    0.1200    0.1300    0.1400    0.1500
    0.1600    0.1700    0.1800    0.1900    0.2000    0.2100    0.2200    0.2300
    0.2400    0.2500    0.2600    0.2700    0.2800    0.2900    0.3000    0.3100
    0.3200    0.3300    0.3400    0.3500    0.3600    0.3700    0.3800    0.3900
    0.4000    0.4100    0.4200    0.4300    0.4400    0.4500    0.4600    0.4700
    0.4800    0.4900    0.5000    0.5100    0.5200    0.5300    0.5400    0.5500
    0.5600    0.5700    0.5800    0.5900    0.6000    0.6100    0.6200    0.6300
    0.6400    0.6500    0.6600    0.6700    0.6800    0.6900    0.7000    0.7100
    0.7200    0.7300    0.7400    0.7500    0.7600    0.7700    0.7800    0.7900
    0.8000    0.8100    0.8200    0.8300    0.8400    0.8500    0.8600    0.8700
    0.8800    0.8900    0.9000    0.9100    0.9200    0.9300    0.9400    0.9500
    0.9600    0.9700    0.9800    0.9900    1.0000    1.0100    1.0200    1.0300
    1.0400    1.0500    1.0600    1.0700    1.0800    1.0900    1.1000    1.1100
    1.1200    1.1300    1.1400    1.1500    1.1600    1.1700    1.1800    1.1900
    1.2000    1.2100    1.2200    1.2300    1.2400    1.2500    1.2600    1.2700
    1.2800    1.2900    1.3000    1.3100    1.3200    1.3300    1.3400    1.3500
    1.3600    1.3700    1.3800    1.3900    1.4000    1.4100    1.4200    1.4300
    1.4400    1.4500    1.4600    1.4700    1.4800    1.4900    1.5000    1.5100
    1.5200    1.5300    1.5400    1.5500    1.5600    1.5700    1.5800    1.5900
    1.6000    1.6100    1.6200    1.6300    1.6400    1.6500    1.6600    1.6700
    1.6800    1.6900    1.7000    1.7100    1.7200    1.7300    1.7400    1.7500
    1.7600    1.7700    1.7800    1.7900    1.8000    1.8100    1.8200    1.8300
    1.8400    1.8500    1.8600    1.8700    1.8800    1.8900    1.9000    1.9100
    1.9200    1.9300    1.9400    1.9500    1.9600    1.9700    1.9800    1.9900
    2.0000    2.0100    2.0200    2.0300    2.0400    2.0500    2.0600    2.0700
    2.0800    2.0900    2.1000    2.1100    2.1200    2.1300    2.1400    2.1500
    2.1600    2.1700    2.1800    2.1900    2.2000    2.2100    2.2200    2.2300
    2.2400    2.2500    2.2600    2.2700    2.2800    2.2900    2.3000    2.3100
    2.3200    2.3300    2.3400    2.3500    2.3600    2.3700    2.3800    2.3900
    2.4000    2.4100    2.4200    2.4300    2.4400    2.4500    2.4600    2.4700
    2.4800    2.4900    2.5000    2.5100    2.5200    2.5300    2.5400    2.5500
    2.5600    2.5700    2.5800    2.5900    2.6000    2.6100    2.6200    2.6300
    2.6400    2.6500    2.6600    2.6700    2.6800    2.6900    2.7000    2.7100
    2.7200    2.7300    2.7400    2.7500    2.7600    2.7700    2.7800    2.7900
    2.8000    2.8100    2.8200    2.8300    2.8400    2.8500    2.8600    2.8700
    2.8800    2.8900    2.9000    2.9100    2.9200    2.9300    2.9400    2.9500
    2.9600    2.9700    2.9800    2.9900    3.0000    3.0100    3.0200    3.0300
    3.0400    3.0500    3.0600    3.0700    3.0800    3.0900    3.1000    3.1100
    3.1200    3.1300    3.1400    3.1500    3.1600    3.1700    3.1800    3.1900
    3.2000    3.2100    3.2200    3.2300    3.2400    3.2500    3.2600    3.2700
    3.2800    3.2900    3.3000    3.3100    3.3200    3.3300    3.3400    3.3500
    3.3600    3.3700    3.3800    3.3900    3.4000    3.4100    3.4200    3.4300
    3.4400    3.4500    3.4600    3.4700    3.4800    3.4900    3.5000    3.5100
    3.5200    3.5300    3.5400    3.5500    3.5600    3.5700    3.5800    3.5900
    3.6000    3.6100    3.6200    3.6300    3.6400    3.6500    3.6600    3.6700
    3.6800    3.6900    3.7000    3.7100    3.7200    3.7300    3.7400    3.7500
    3.7600    3.7700    3.7800    3.7900    3.8000    3.8100    3.8200    3.8300
    3.8400    3.8500    3.8600    3.8700    3.8800    3.8900    3.9000    3.9100
    3.9200    3.9300    3.9400    3.9500    3.9600    3.9700    3.9800    3.9900
    4.0000    4.0100    4.0200    4.0300    4.0400    4.0500    4.0600    4.0700
    4.0800    4.0900    4.1000    4.1100    4.1200    4.1300    4.1400    4.1500
    4.1600    4.1700    4.1800    4.1900    4.2000    4.2100    4.2200    4.2300
    4.2400    4.2500    4.2600    4.2700    4.2800    4.2900    4.3000    4.3100
    4.3200    4.3300    4.3400    4.3500    4.3600    4.3700    4.3800    4.3900
    4.4000    4.4100    4.4200    4.4300    4.4400    4.4500    4.4600    4.4700
    4.4800    4.4900    4.5000    4.5100    4.5200    4.5300    4.5400    4.5500
    4.5600    4.5700    4.5800    4.5900    4.6000    4.6100    4.6200    4.6300
    4.6400    4.6500    4.6600    4.6700    4.6800    4.6900    4.7000    4.7100
    4.7200    4.7300    4.7400    4.7500    4.7600    4.7700    4.7800    4.7900
    4.8000    4.8100    4.8200    4.8300    4.8400    4.8500    4.8600    4.8700
    4.8800    4.8900    4.9000    4.9100    4.9200    4.9300    4.9400    4.9500
    4.9600    4.9700    4.9800    4.9900    5.0000    5.0100    5.0200    5.0300
    5.0400    5.0500    5.0600    5.0700    5.0800    5.0900    5.1000    5.1100
    5.1200    5.1300    5.1400    5.1500    5.1600    5.1700    5.1800    5.1900
    5.2000    5.2100    5.2200    5.2300    5.2400    5.2500    5.2600    5.2700
    5.2800    5.2900    5.3000    5.3100    5.3200    5.3300    5.3400    5.3500
    5.3600    5.3700    5.3800    5.3900    5.4000    5.4100    5.4200    5.4300
    5.4400    5.4500    5.4600    5.4700    5.4800    5.4900    5.5000    5.5100
    5.5200    5.5300    5.5400    5.5500    5.5600    5.5700    5.5800    5.5900
    5.6000    5.6100    5.6200    5.6300    5.6400    5.6500    5.6600    5.6700
    5.6800    5.6900    5.7000    5.7100    5.7200    5.7300    5.7400    5.7500
    5.7600    5.7700    5.7800    5.7900    5.8000    5.8100    5.8200    5.8300
    5.8400    5.8500    5.8600    5.8700    5.8800    5.8900    5.9000    5.9100
    5.9200    5.9300    5.9400    5.9500    5.9600    5.9700    5.9800    5.9900
    6.0000    6.0100    6.0200    6.0300    6.0400    6.0500    6.0600    6.0700
    6.0800    6.0900    6.1000    6.1100    6.1200    6.1300    6.1400    6.1500
    6.1600    6.1700    6.1800    6.1900    6.2000    6.2100    6.2200    6.2300
    6.2400    6.2500    6.2600    6.2700    6.2800    6.2900    6.3000    6.3100
    6.3200    6.3300    6.3400    6.3500    6.3600    6.3700    6.3800    6.3900
    6.4000    6.4100    6.4200    6.4300    6.4400    6.4500    6.4600    6.4700
    6.4800    6.4900    6.5000    6.5100    6.5200    6.5300    6.5400    6.5500
    6.5600    6.5700    6.5800    6.5900    6.6000    6.6100    6.6200    6.6300
    6.6400    6.6500    6.6600    6.6700    6.6800    6.6900    6.7000    6.7100
    6.7200    6.7300    6.7400    6.7500    6.7600    6.7700    6.7800    6.7900
    6.8000    6.8100    6.8200    6.8300    6.8400    6.8500    6.8600    6.8700
    6.8800    6.8900    6.9000    6.9100    6.9200    6.9300    6.9400    6.9500
    6.9600    6.9700    6.9800    6.9900    7.0000    7.0100    7.0200    7.0300
    7.0400    7.0500    7.0600    7.0700    7.0800    7.0900    7.1000    7.1100
    7.1200    7.1300    7.1400    7.1500    7.1600    7.1700    7.1800    7.1900
    7.2000    7.2100    7.2200    7.2300    7.2400    7.2500    7.2600    7.2700
    7.2800    7.2900    7.3000    7.3100    7.3200    7.3300    7.3400    7.3500
    7.3600    7.3700    7.3800    7.3900    7.4000    7.4100    7.4200    7.4300
    7.4400    7.4500    7.4600    7.4700    7.4800    7.4900    7.5000    7.5100
    7.5200    7.5300    7.5400    7.5500    7.5600    7.5700    7.5800    7.5900
    7.6000    7.6100    7.6200    7.6300    7.6400    7.6500    7.6600    7.6700
    7.6800    7.6900    7.7000    7.7100    7.7200    7.7300    7.7400    7.7500
    7.7600    7.7700    7.7800    7.7900    7.8000    7.8100    7.8200    7.8300
    7.8400    7.8500    7.8600    7.8700    7.8800    7.8900    7.9000    7.9100
    7.9200    7.9300    7.9400    7.9500    7.9600    7.9700    7.9800    7.9900
    8.0000    8.0100    8.0200    8.0300    8.0400    8.0500    8.0600    8.0700
    8.0800    8.0900    8.1000    8.1100    8.1200    8.1300    8.1400    8.1500
    8.1600    8.1700    8.1800    8.1900    8.2000    8.2100    8.2200    8.2300
    8.2400    8.2500    8.2600    8.2700    8.2800    8.2900    8.3000    8.3100
    8.3200    8.3300
   </PP_R>
   <PP_RAB type="real"  size=" 834" columns="8">
    0.0100    0.0100    0.0100    0.0100    0.0100    0.0100    0.0100    0.0100
    0.0100    0.0100    0.0100    0.0100    0.0100    0.0100    0.0100    0.0100
    0.0100    0.0100    0.0100    0.0100    0.0100    0.0100    0.0100    0.0100
    0.0100    0.0100    0.0100    0.0100    0.0100    0.0100    0.0100    0.0100
    0.0100    0.0100    0.0100    0.0100    0.0100    0.0100    0.0100    0.0100
    0.0100    0.0100    0.0100    0.0100    0.0100    0.0100    0.0100    0.0100
    0.0100    0.0100    0.0100    0.0100    0.0100    0.0100    0.0100    0.0100
    0.0100    0.0100    0.0100    0.0100    0.0100    0.0100    0.0100    0.0100
    0.0100    0.0100    0.0100    0.0100    0.0100    0.0100    0.0100    0.0100
    0.0100    0.0100    0.0100    0.0100    0.0100    0.0100    0.0100    0.0100
    0.0100    0.0100    0.0100    0.0100    0.0100    0.0100    0.0100    0.0100
    0.0100    0.0100    0.0100    0.0100    0.0100    0.0100    0.0100    0.0100
    0.0100    0.0100    0.0100    0.0100    0.0100    0.0100    0.0100    0.0100
    0.0100    0.0100    0.0100    0.0100    0.0100    0.0100    0.0100    0.0100
    0.0100    0.0100    0.0100    0.0100    0.0100    0.0100    0.0100    0.0100
    0.0100    0.0100    0.0100    0.0100    0.0100    0.0100    0.0100    0.0100
    0.0100    0.0100    0.0100    0.0100    0.0100    0.0100    0.0100    0.0100
    0.0100    0.0100    0.0100    0.0100    0.0100    0.0100    0.0100    0.0100
    0.0100    0.0100    0.0100    0.0100    0.0100    0.0100    0.0100    0.0100
    0.0100    0.0100    0.0100    0.0100    0.0100    0.0100    0.0100    0.0100
    0.0100    0.0100    0.0100    0.0100    0.0100    0.0100    0.0100    0.0100
    0.0100    0.0100    0.0100    0.0100    0.0100    0.0100    0.0100    0.0100
    0.0100    0.0100    0.0100    0.0100    0.0100    0.0100    0.0100    0.0100
    0.0100    0.0100    0.0100    0.0100    0.0100    0.0100    0.0100    0.0100
    0.0100    0.0100    0.0100    0.0100    0.0100    0.0100    0.0100    0.0100
    0.0100    0.0100    0.0100    0.0100    0.0100    0.0100    0.0100    0.0100
    0.0100    0.0100    0.0100    0.0100    0.0100    0.0100    0.0100    0.0100
    0.0100    0.0100    0.0100    0.0100    0.0100    0.0100    0.0100    0.0100
    0.0100    0.0100    0.0100    0.0100    0.0100    0.0100    0.0100    0.0100
    0.0100    0.0100    0.0100    0.0100    0.0100    0.0100    0.0100    0.0100
    0.0100    0.0100    0.0100    0.0100    0.0100    0.0100    0.0100    0.0100
    0.0100    0.0100    0.0100    0.0100    0.0100    0.0100    0.0100    0.0100
    0.0100    0.0100    0.0100    0.0100    0.0100    0.0100    0.0100    0.0100
    0.0100    0.0100    0.0100    0.0100    0.0100    0.0100    0.0100    0.0100
    0.0100    0.0100    0.0100    0.0100    0.0100    0.0100    0.0100    0.0100
    0.0100    0.0100    0.0100    0.0100    0.0100    0.0100    0.0100    0.0100
    0.0100    0.0100    0.0100    0.0100    0.0100    0.0100    0.0100    0.0100
    0.0100    0.0100    0.0100    0.0100    0.0100    0.0100    0.0100    0.0100
    0.0100    0.0100    0.0100    0.0100    0.0100    0.0100    0.0100    0.0100
    0.0100    0.0100    0.0100    0.0100    0.0100    0.0100    0.0100    0.0100
    0.0100    0.0100    0.0100    0.0100    0.0100    0.0100    0.0100    0.0100
    0.0100    0.0100    0.0100    0.0100    0.0100    0.0100    0.0100    0.0100
    0.0100    0.0100    0.0100    0.0100    0.0100    0.0100    0.0100    0.0100
    0.0100    0.0100    0.0100    0.0100    0.0100    0.0100    0.0100    0.0100
    0.0100    0.0100    0.0100    0.0100    0.0100    0.0100    0.0100    0.0100
    0.0100    0.0100    0.0100    0.0100    0.0100    0.0100    0.0100    0.0100
    0.0100    0.0100    0.0100    0.0100    0.0100    0.0100    0.0100    0.0100
    0.0100    0.0100    0.0100    0.0100    0.0100    0.0100    0.0100    0.0100
    0.0100    0.0100    0.0100    0.0100    0.0100    0.0100    0.0100    0.0100
    0.0100    0.0100    0.0100    0.0100    0.0100    0.0100    0.0100    0.0100
    0.0100    0.0100    0.0100    0.0100    0.0100    0.0100    0.0100    0.0100
    0.0100    0.0100    0.0100    0.0100    0.0100    0.0100    0.0100    0.0100
    0.0100    0.0100    0.0100    0.0100    0.0100    0.0100    0.0100    0.0100
    0.0100    0.0100    0.0100    0.0100    0.0100    0.0100    0.0100    0.0100
    0.0100    0.0100    0.0100    0.0100    0.0100    0.0100    0.0100    0.0100
    0.0100    0.0100    0.0100    0.0100    0.0100    0.0100    0.0100    0.0100
    0.0100    0.0100    0.0100    0.0100    0.0100    0.0100    0.0100    0.0100
    0.0100    0.0100    0.0100    0.0100    0.0100    0.0100    0.0100    0.0100
    0.0100    0.0100    0.0100    0.0100    0.0100    0.0100    0.0100    0.0100
    0.0100    0.0100    0.0100    0.0100    0.0100    0.0100    0.0100    0.0100
    0.0100    0.0100    0.0100    0.0100    0.0100    0.0100    0.0100    0.0100
    0.0100    0.0100    0.0100    0.0100    0.0100    0.0100    0.0100    0.0100
    0.0100    0.0100    0.0100    0.0100    0.0100    0.0100    0.0100    0.0100
    0.0100    0.0100    0.0100    0.0100    0.0100    0.0100    0.0100    0.0100
    0.0100    0.0100    0.0100    0.0100    0.0100    0.0100    0.0100    0.0100
    0.0100    0.0100    0.0100    0.0100    0.0100    0.0100    0.0100    0.0100
    0.0100    0.0100    0.0100    0.0100    0.0100    0.0100    0.0100    0.0100
    0.0100    0.0100    0.0100    0.0100    0.0100    0.0100    0.0100    0.0100
    0.0100    0.0100    0.0100    0.0100    0.0100    0.0100    0.0100    0.0100
    0.0100    0.0100    0.0100    0.0100    0.0100    0.0100    0.0100    0.0100
    0.0100    0.0100    0.0100    0.0100    0.0100    0.0100    0.0100    0.0100
    0.0100    0.0100    0.0100    0.0100    0.0100    0.0100    0.0100    0.0100
    0.0100    0.0100    0.0100    0.0100    0.0100    0.0100    0.0100    0.0100
    0.0100    0.0100    0.0100    0.0100    0.0100    0.0100    0.0100    0.0100
    0.0100    0.0100    0.0100    0.0100    0.0100    0.0100    0.0100    0.0100
    0.0100    0.0100    0.0100    0.0100    0.0100    0.0100    0.0100    0.0100
    0.0100    0.0100    0.0100    0.0100    0.0100    0.0100    0.0100    0.0100
    0.0100    0.0100    0.0100    0.0100    0.0100    0.0100    0.0100    0.0100
    0.0100    0.0100    0.0100    0.0100    0.0100    0.0100    0.0100    0.0100
    0.0100    0.0100    0.0100    0.0100    0.0100    0.0100    0.0100    0.0100
    0.0100    0.0100    0.0100    0.0100    0.0100    0.0100    0.0100    0.0100
    0.0100    0.0100    0.0100    0.0100    0.0100    0.0100    0.0100    0.0100
    0.0100    0.0100    0.0100    0.0100    0.0100    0.0100    0.0100    0.0100
    0.0100    0.0100    0.0100    0.0100    0.0100    0.0100    0.0100    0.0100
    0.0100    0.0100    0.0100    0.0100    0.0100    0.0100    0.0100    0.0100
    0.0100    0.0100    0.0100    0.0100    0.0100    0.0100    0.0100    0.0100
    0.0100    0.0100    0.0100    0.0100    0.0100    0.0100    0.0100    0.0100
    0.0100    0.0100    0.0100    0.0100    0.0100    0.0100    0.0100    0.0100
    0.0100    0.0100    0.0100    0.0100    0.0100    0.0100    0.0100    0.0100
    0.0100    0.0100    0.0100    0.0100    0.0100    0.0100    0.0100    0.0100
    0.0100    0.0100    0.0100    0.0100    0.0100    0.0100    0.0100    0.0100
    0.0100    0.0100    0.0100    0.0100    0.0100    0.0100    0.0100    0.0100
    0.0100    0.0100    0.0100    0.0100    0.0100    0.0100    0.0100    0.0100
    0.0100    0.0100    0.0100    0.0100    0.0100    0.0100    0.0100    0.0100
    0.0100    0.0100    0.0100    0.0100    0.0100    0.0100    0.0100    0.0100
    0.0100    0.0100    0.0100    0.0100    0.0100    0.0100    0.0100    0.0100
    0.0100    0.0100    0.0100    0.0100    0.0100    0.0100    0.0100    0.0100
    0.0100    0.0100    0.0100    0.0100    0.0100    0.0100    0.0100    0.0100
    0.0100    0.0100    0.0100    0.0100    0.0100    0.0100    0.0100    0.0100
    0.0100    0.0100    0.0100    0.0100    0.0100    0.0100    0.0100    0.0100
    0.0100    0.0100    0.0100    0.0100    0.0100    0.0100    0.0100    0.0100
    0.0100    0.0100    0.0100    0.0100    0.0100    0.0100    0.0100    0.0100
    0.0100    0.0100    0.0100    0.0100    0.0100    0.0100    0.0100    0.0100
    0.0100    0.0100    0.0100    0.0100    0.0100    0.0100    0.0100    0.0100
    0.0100    0.0100
   </PP_RAB>
 </PP_MESH>
  <PP_LOCAL type="real"  size=" 834" columns="4">
   -4.3285730191E+01   -4.3276693404E+01   -4.3249600736E+01   -4.3204509986E+01
   -4.3141515757E+01   -4.3060748660E+01   -4.2962373611E+01   -4.2846587808E+01
   -4.2713618485E+01   -4.2563720566E+01   -4.2397174304E+01   -4.2214283007E+01
   -4.2015370918E+01   -4.1800781305E+01   -4.1570874790E+01   -4.1326027949E+01
   -4.1066632154E+01   -4.0793092666E+01   -4.0505827944E+01   -4.0205269134E+01
   -3.9891859710E+01   -3.9566055237E+01   -3.9228323196E+01   -3.8879142880E+01
   -3.8519005295E+01   -3.8148413064E+01   -3.7767880315E+01   -3.7377932528E+01
   -3.6979106336E+01   -3.6571949269E+01   -3.6157019439E+01   -3.5734885155E+01
   -3.5306124472E+01   -3.4871324656E+01   -3.4431081590E+01   -3.3985999082E+01
   -3.3536688104E+01   -3.3083765937E+01   -3.2627855219E+01   -3.2169582898E+01
   -3.1709579076E+01   -3.1248475731E+01   -3.0786905323E+01   -3.0325499260E+01
   -2.9864886235E+01   -2.9405690409E+01   -2.8948529458E+01   -2.8494012473E+01
   -2.8042737712E+01   -2.7595290234E+01   -2.7152239391E+01   -2.6714136224E+01
   -2.6281510752E+01   -2.5854869187E+01   -2.5434691080E+01   -2.5021426411E+01
   -2.4615492646E+01   -2.4217271752E+01   -2.3827107198E+01   -2.3445300919E+01
   -2.3072110265E+01   -2.2707744916E+01   -2.2352363764E+01   -2.2006071756E+01
   -2.1668916686E+01   -2.1340885939E+01   -2.1021903169E+01   -2.0711824927E+01
   -2.0410437221E+01   -2.0117456537E+01   -1.9832572852E+01   -1.9555491154E+01
   -1.9285933224E+01   -1.9023635868E+01   -1.8768349312E+01   -1.8519835742E+01
   -1.8277867985E+01   -1.8042228342E+01   -1.7812707544E+01   -1.7589103851E+01
   -1.7371222265E+01   -1.7158873870E+01   -1.6951875276E+01   -1.6750048173E+01
   -1.6553218967E+01   -1.6361218512E+01   -1.6173881906E+01   -1.5991048362E+01
   -1.5812561120E+01   -1.5638267419E+01   -1.5468018494E+01   -1.5301669612E+01
   -1.5139080118E+01   -1.4980113500E+01   -1.4824637460E+01   -1.4672523987E+01
   -1.4523649420E+01   -1.4377894511E+01   -1.4235144466E+01   -1.4095288981E+01
   -1.3958222249E+01   -1.3823842960E+01   -1.3692054273E+01   -1.3562763773E+01
   -1.3435883404E+01   -1.3311329390E+01   -1.3189022134E+01   -1.3068886102E+01
   -1.2950849699E+01   -1.2834845127E+01   -1.2720808238E+01   -1.2608678380E+01
   -1.2498398239E+01   -1.2389913675E+01   -1.2283173562E+01   -1.2178129631E+01
   -1.2074736308E+01   -1.1972950564E+01   -1.1872731764E+01   -1.1774041532E+01
   -1.1676843611E+01   -1.1581103738E+01   -1.1486789525E+01   -1.1393870344E+01
   -1.1302317228E+01   -1.1212102765E+01   -1.1123201013E+01   -1.1035587408E+01
   -1.0949238686E+01   -1.0864132803E+01   -1.0780248858E+01   -1.0697567018E+01
   -1.0616068444E+01   -1.0535735214E+01   -1.0456550242E+01   -1.0378497199E+01
   -1.0301560425E+01   -1.0225724836E+01   -1.0150975828E+01   -1.0077299177E+01
   -1.0004680930E+01   -9.9331072965E+00   -9.8625645339E+00   -9.7930388339E+00
   -9.7245162104E+00   -9.6569823801E+00   -9.5904226290E+00   -9.5248217836E+00
   -9.4601641941E+00   -9.3964335417E+00   -9.3336127882E+00   -9.2716842723E+00
   -9.2106296493E+00   -9.1504188946E+00   -9.0909982319E+00   -9.0323412411E+00
   -8.9744365989E+00   -8.9172693931E+00   -8.8608259201E+00   -8.8050926916E+00
   -8.7500565353E+00   -8.6957045745E+00   -8.6420242173E+00   -8.5890031470E+00
   -8.5366293154E+00   -8.4848909363E+00   -8.4337764816E+00   -8.3832746776E+00
   -8.3333745028E+00   -8.2840651855E+00   -8.2353362016E+00   -8.1871772728E+00
   -8.1395783643E+00   -8.0925296815E+00   -8.0460216666E+00   -8.0000449946E+00
   -7.9545905678E+00   -7.9096495107E+00   -7.8652131631E+00   -7.8212730733E+00
   -7.7778209907E+00   -7.7348488584E+00   -7.6923488023E+00   -7.6503131392E+00
   -7.6087343141E+00   -7.5676049386E+00   -7.5269180773E+00   -7.4866667760E+00
   -7.4468436404E+00   -7.4074419239E+00   -7.3684549680E+00   -7.3298762578E+00
   -7.2916994144E+00   -7.2539181910E+00   -7.2165264696E+00   -7.1795182580E+00
   -7.1428876858E+00   -7.1066290021E+00   -7.0707365722E+00   -7.0352048746E+00
   -7.0000284982E+00   -6.9652021396E+00   -6.9307206005E+00   -6.8965787850E+00
   -6.8627716970E+00   -6.8292944381E+00   -6.7961422048E+00   -6.7633102866E+00
   -6.7307940635E+00   -6.6985890040E+00   -6.6666906629E+00   -6.6350946791E+00
   -6.6037967740E+00   -6.5727927493E+00   -6.5420784852E+00   -6.5116499384E+00
   -6.4815031406E+00   -6.4516341967E+00   -6.4220392830E+00   -6.3927146455E+00
   -6.3636565988E+00   -6.3348615239E+00   -6.3063258672E+00   -6.2780461387E+00
   -6.2500189107E+00   -6.2222408167E+00   -6.1947085495E+00   -6.1674188604E+00
   -6.1403685569E+00   -6.1135545034E+00   -6.0869736205E+00   -6.0606228766E+00
   -6.0344992963E+00   -6.0085999566E+00   -5.9829219815E+00   -5.9574625451E+00
   -5.9322188695E+00   -5.9071882235E+00   -5.8823679219E+00   -5.8577553243E+00
   -5.8333478344E+00   -5.8091428991E+00   -5.7851380074E+00   -5.7613306894E+00
   -5.7377185162E+00   -5.7142990980E+00   -5.6910700843E+00   -5.6680291625E+00
   -5.6451740572E+00   -5.6225025297E+00   -5.6000123770E+00   -5.5777014312E+00
   -5.5555675591E+00   -5.5336086609E+00   -5.5118226699E+00   -5.4902075519E+00
   -5.4687613045E+00   -5.4474819565E+00   -5.4263675671E+00   -5.4054162257E+00
   -5.3846260508E+00   -5.3639951899E+00   -5.3435218190E+00   -5.3232041413E+00
   -5.3030403879E+00   -5.2830288159E+00   -5.2631677092E+00   -5.2434553770E+00
   -5.2238901540E+00   -5.2044703996E+00   -5.1851944973E+00   -5.1660608547E+00
   -5.1470679028E+00   -5.1282140954E+00   -5.1094979091E+00   -5.0909178426E+00
   -5.0724724162E+00   -5.0541601717E+00   -5.0359796718E+00   -5.0179295001E+00
   -5.0000082600E+00   -4.9822145750E+00   -4.9645470882E+00   -4.9470044617E+00
   -4.9295853765E+00   -4.9122885322E+00   -4.8951126466E+00   -4.8780564552E+00
   -4.8611187111E+00   -4.8442981849E+00   -4.8275936638E+00   -4.8110039519E+00
   -4.7945278697E+00   -4.7781642536E+00   -4.7619119561E+00   -4.7457698450E+00
   -4.7297368036E+00   -4.7138117301E+00   -4.6979935375E+00   -4.6822811536E+00
   -4.6666735200E+00   -4.6511695929E+00   -4.6357683420E+00   -4.6204687506E+00
   -4.6052698155E+00   -4.5901705466E+00   -4.5751699668E+00   -4.5602671117E+00
   -4.5454610293E+00   -4.5307507801E+00   -4.5161354367E+00   -4.5016140836E+00
   -4.4871858168E+00   -4.4728497444E+00   -4.4586049853E+00   -4.4444506699E+00
   -4.4303859395E+00   -4.4164099464E+00   -4.4025218532E+00   -4.3887208335E+00
   -4.3750060708E+00   -4.3613767589E+00   -4.3478321018E+00   -4.3343713131E+00
   -4.3209936162E+00   -4.3076982442E+00   -4.2944844394E+00   -4.2813514534E+00
   -4.2682985471E+00   -4.2553249903E+00   -4.2424300615E+00   -4.2296130480E+00
   -4.2168732459E+00   -4.2042099595E+00   -4.1916225015E+00   -4.1791101928E+00
   -4.1666723625E+00   -4.1543083475E+00   -4.1420174926E+00   -4.1297991504E+00
   -4.1176526811E+00   -4.1055774523E+00   -4.0935728390E+00   -4.0816382237E+00
   -4.0697729959E+00   -4.0579765522E+00   -4.0462482962E+00   -4.0345876383E+00
   -4.0229939959E+00   -4.0114667927E+00   -4.0000054594E+00   -3.9886094330E+00
   -3.9772781567E+00   -3.9660110805E+00   -3.9548076600E+00   -3.9436673575E+00
   -3.9325896410E+00   -3.9215739845E+00   -3.9106198680E+00   -3.8997267773E+00
   -3.8888942037E+00   -3.8781216444E+00   -3.8674086020E+00   -3.8567545846E+00
   -3.8461591057E+00   -3.8356216841E+00   -3.8251418441E+00   -3.8147191149E+00
   -3.8043530308E+00   -3.7940431315E+00   -3.7837889612E+00   -3.7735900694E+00
   -3.7634460103E+00   -3.7533563429E+00   -3.7433206308E+00   -3.7333384424E+00
   -3.7234093506E+00   -3.7135329329E+00   -3.7037087714E+00   -3.6939364522E+00
   -3.6842155662E+00   -3.6745457084E+00   -3.6649264779E+00   -3.6553574783E+00
   -3.6458383172E+00   -3.6363686060E+00   -3.6269479606E+00   -3.6175760006E+00
   -3.6082523495E+00   -3.5989766348E+00   -3.5897484877E+00   -3.5805675433E+00
   -3.5714334402E+00   -3.5623458211E+00   -3.5533043318E+00   -3.5443086221E+00
   -3.5353583451E+00   -3.5264531575E+00   -3.5175927194E+00   -3.5087766945E+00
   -3.5000047495E+00   -3.4912765547E+00   -3.4825917836E+00   -3.4739501130E+00
   -3.4653512227E+00   -3.4567947960E+00   -3.4482805190E+00   -3.4398080811E+00
   -3.4313771746E+00   -3.4229874949E+00   -3.4146387402E+00   -3.4063306120E+00
   -3.3980628144E+00   -3.3898350544E+00   -3.3816470419E+00   -3.3734984895E+00
   -3.3653891127E+00   -3.3573186297E+00   -3.3492867613E+00   -3.3412932311E+00
   -3.3333377651E+00   -3.3254200922E+00   -3.3175399437E+00   -3.3096970534E+00
   -3.3018911578E+00   -3.2941219957E+00   -3.2863893084E+00   -3.2786928396E+00
   -3.2710323355E+00   -3.2634075447E+00   -3.2558182178E+00   -3.2482641081E+00
   -3.2407449710E+00   -3.2332605643E+00   -3.2258106477E+00   -3.2183949836E+00
   -3.2110133361E+00   -3.2036654719E+00   -3.1963511594E+00   -3.1890701694E+00
   -3.1818222747E+00   -3.1746072502E+00   -3.1674248728E+00   -3.1602749214E+00
   -3.1531571768E+00   -3.1460714220E+00   -3.1390174418E+00   -3.1319950230E+00
   -3.1250039541E+00   -3.1180440258E+00   -3.1111150304E+00   -3.1042167622E+00
   -3.0973490172E+00   -3.0905115933E+00   -3.0837042901E+00   -3.0769269090E+00
   -3.0701792533E+00   -3.0634611277E+00   -3.0567723388E+00   -3.0501126949E+00
   -3.0434820058E+00   -3.0368800833E+00   -3.0303067405E+00   -3.0237617921E+00
   -3.0172450547E+00   -3.0107563462E+00   -3.0042954862E+00   -2.9978622957E+00