<UPF version="2.0.1">
  <PP_INFO>

# ************************************************************************************* #
# Copyright (c) 2022 Material Physics & Mechanics Group, Georgia Tech                   #
# Distributed under GNU General Public License 3 (GPL) (https://www.gnu.org/licenses/)  #
# Mostafa Faghih Shojaei, John E. Pask, Andrew J. Medford, and Phanish Suryanarayana.   #
# "Soft and transferable pseudopotentials from multi-objective optimization."           #
# arXiv preprint arXiv:2209.09806 (2022). (https://doi.org/10.48550/arXiv.2209.09806)   #
# Acknowledgment: U.S. Department of Energy (DOE), Office of Science (SC): DE-SC0019410 #
# ************************************************************************************* #
# Ecut (1e-3 Ha/atom accuracy):  24 Ha                                                  #
# Ecut (1e-4 Ha/atom accuracy):  28 Ha                                                  #
# Mesh size (1e-3 Ha/atom accuracy, 12th order FD):  0.31 Bohr                          #
# Mesh size (1e-4 Ha/atom accuracy, 12th order FD):  0.29 Bohr                          #
# ************************************************************************************* #

 This pseudopotential file has been produced using the code
 ONCVPSP  (Optimized Norm-Conservinng Vanderbilt PSeudopotential)
 scalar-relativistic version 4.0.1 06/04/2019 by D. R. Hamann
 The code is available through a link at URL www.mat-simresearch.com.
 Documentation with the package provides a full discription of the
 input data below.


 While it is not required under the terms of the GNU GPL, it is
 suggested that you cite D. R. Hamann, Phys. Rev. B 88, 085117 (2013)
 in any publication using these pseudopotentials.

    <PP_INPUTFILE>
# ATOM AND REFERENCE CONFIGURATION
# atsym  z   nc   nv     iexc    psfile
  Ne 10.00    1    2       4      upf
#
#   n    l    f        energy (Ha)
    1    0    2.00
    2    0    2.00
    2    1    6.00
#
# PSEUDOPOTENTIAL AND OPTIMIZATION
# lmax
    1
#
#   l,   rc,      ep,       ncon, nbas, qcut
    0   1.40000  -1.33786    4    7   8.40000
    1   1.80000  -0.49002    4    9   7.45000
#
# LOCAL POTENTIAL
# lloc, lpopt,  rc(5),   dvloc0
    4    5   1.40000      0.00000
#
# VANDERBILT-KLEINMAN-BYLANDER PROJECTORs
# l, nproj, debl
    0    2   1.50000
    1    2   1.50000
#
# MODEL CORE CHARGE
# icmod, fcfact, rcfact
    0   0.00000   0.00000
#
# LOG DERIVATIVE ANALYSIS
# epsh1, epsh2, depsh
  -12.00   12.00    0.02
#
# OUTPUT GRID
# rlmax, drl
    4.00    0.01
#
# TEST CONFIGURATIONS
# ncnf
    0
# nvcnf
#   n    l    f
    </PP_INPUTFILE>
  </PP_INFO>
  <!--                               -->
  <!-- END OF HUMAN READABLE SECTION -->
  <!--                               -->
    <PP_HEADER
       generated="Generated using ONCVPSP code by D. R. Hamann"
       author="anonymous"
       date="220820"
       comment=""
       element="Ne"
       pseudo_type="NC"
       relativistic="scalar"
       is_ultrasoft="F"
       is_paw="F"
       is_coulomb="F"
       has_so="F"
       has_wfc="F"
       has_gipaw="F"
       core_correction="F"
       functional="PBE"
       z_valence="    8.00"
       total_psenergy="  -6.58671086384E+01"
       rho_cutoff="   7.53000000000E+00"
       l_max="1"
       l_local="-1"
       mesh_size="   754"
       number_of_wfc="2"
       number_of_proj="4"/>
 <PP_MESH>
   <PP_R type="real"  size=" 754" columns="8">
    0.0000    0.0100    0.0200    0.0300    0.0400    0.0500    0.0600    0.0700
    0.0800    0.0900    0.1000    0.1100    0.1200    0.1300    0.1400    0.1500
    0.1600    0.1700    0.1800    0.1900    0.2000    0.2100    0.2200    0.2300
    0.2400    0.2500    0.2600    0.2700    0.2800    0.2900    0.3000    0.3100
    0.3200    0.3300    0.3400    0.3500    0.3600    0.3700    0.3800    0.3900
    0.4000    0.4100    0.4200    0.4300    0.4400    0.4500    0.4600    0.4700
    0.4800    0.4900    0.5000    0.5100    0.5200    0.5300    0.5400    0.5500
    0.5600    0.5700    0.5800    0.5900    0.6000    0.6100    0.6200    0.6300
    0.6400    0.6500    0.6600    0.6700    0.6800    0.6900    0.7000    0.7100
    0.7200    0.7300    0.7400    0.7500    0.7600    0.7700    0.7800    0.7900
    0.8000    0.8100    0.8200    0.8300    0.8400    0.8500    0.8600    0.8700
    0.8800    0.8900    0.9000    0.9100    0.9200    0.9300    0.9400    0.9500
    0.9600    0.9700    0.9800    0.9900    1.0000    1.0100    1.0200    1.0300
    1.0400    1.0500    1.0600    1.0700    1.0800    1.0900    1.1000    1.1100
    1.1200    1.1300    1.1400    1.1500    1.1600    1.1700    1.1800    1.1900
    1.2000    1.2100    1.2200    1.2300    1.2400    1.2500    1.2600    1.2700
    1.2800    1.2900    1.3000    1.3100    1.3200    1.3300    1.3400    1.3500
    1.3600    1.3700    1.3800    1.3900    1.4000    1.4100    1.4200    1.4300
    1.4400    1.4500    1.4600    1.4700    1.4800    1.4900    1.5000    1.5100
    1.5200    1.5300    1.5400    1.5500    1.5600    1.5700    1.5800    1.5900
    1.6000    1.6100    1.6200    1.6300    1.6400    1.6500    1.6600    1.6700
    1.6800    1.6900    1.7000    1.7100    1.7200    1.7300    1.7400    1.7500
    1.7600    1.7700    1.7800    1.7900    1.8000    1.8100    1.8200    1.8300
    1.8400    1.8500    1.8600    1.8700    1.8800    1.8900    1.9000    1.9100
    1.9200    1.9300    1.9400    1.9500    1.9600    1.9700    1.9800    1.9900
    2.0000    2.0100    2.0200    2.0300    2.0400    2.0500    2.0600    2.0700
    2.0800    2.0900    2.1000    2.1100    2.1200    2.1300    2.1400    2.1500
    2.1600    2.1700    2.1800    2.1900    2.2000    2.2100    2.2200    2.2300
    2.2400    2.2500    2.2600    2.2700    2.2800    2.2900    2.3000    2.3100
    2.3200    2.3300    2.3400    2.3500    2.3600    2.3700    2.3800    2.3900
    2.4000    2.4100    2.4200    2.4300    2.4400    2.4500    2.4600    2.4700
    2.4800    2.4900    2.5000    2.5100    2.5200    2.5300    2.5400    2.5500
    2.5600    2.5700    2.5800    2.5900    2.6000    2.6100    2.6200    2.6300
    2.6400    2.6500    2.6600    2.6700    2.6800    2.6900    2.7000    2.7100
    2.7200    2.7300    2.7400    2.7500    2.7600    2.7700    2.7800    2.7900
    2.8000    2.8100    2.8200    2.8300    2.8400    2.8500    2.8600    2.8700
    2.8800    2.8900    2.9000    2.9100    2.9200    2.9300    2.9400    2.9500
    2.9600    2.9700    2.9800    2.9900    3.0000    3.0100    3.0200    3.0300
    3.0400    3.0500    3.0600    3.0700    3.0800    3.0900    3.1000    3.1100
    3.1200    3.1300    3.1400    3.1500    3.1600    3.1700    3.1800    3.1900
    3.2000    3.2100    3.2200    3.2300    3.2400    3.2500    3.2600    3.2700
    3.2800    3.2900    3.3000    3.3100    3.3200    3.3300    3.3400    3.3500
    3.3600    3.3700    3.3800    3.3900    3.4000    3.4100    3.4200    3.4300
    3.4400    3.4500    3.4600    3.4700    3.4800    3.4900    3.5000    3.5100
    3.5200    3.5300    3.5400    3.5500    3.5600    3.5700    3.5800    3.5900
    3.6000    3.6100    3.6200    3.6300    3.6400    3.6500    3.6600    3.6700
    3.6800    3.6900    3.7000    3.7100    3.7200    3.7300    3.7400    3.7500
    3.7600    3.7700    3.7800    3.7900    3.8000    3.8100    3.8200    3.8300
    3.8400    3.8500    3.8600    3.8700    3.8800    3.8900    3.9000    3.9100
    3.9200    3.9300    3.9400    3.9500    3.9600    3.9700    3.9800    3.9900
    4.0000    4.0100    4.0200    4.0300    4.0400    4.0500    4.0600    4.0700
    4.0800    4.0900    4.1000    4.1100    4.1200    4.1300    4.1400    4.1500
    4.1600    4.1700    4.1800    4.1900    4.2000    4.2100    4.2200    4.2300
    4.2400    4.2500    4.2600    4.2700    4.2800    4.2900    4.3000    4.3100
    4.3200    4.3300    4.3400    4.3500    4.3600    4.3700    4.3800    4.3900
    4.4000    4.4100    4.4200    4.4300    4.4400    4.4500    4.4600    4.4700
    4.4800    4.4900    4.5000    4.5100    4.5200    4.5300    4.5400    4.5500
    4.5600    4.5700    4.5800    4.5900    4.6000    4.6100    4.6200    4.6300
    4.6400    4.6500    4.6600    4.6700    4.6800    4.6900    4.7000    4.7100
    4.7200    4.7300    4.7400    4.7500    4.7600    4.7700    4.7800    4.7900
    4.8000    4.8100    4.8200    4.8300    4.8400    4.8500    4.8600    4.8700
    4.8800    4.8900    4.9000    4.9100    4.9200    4.9300    4.9400    4.9500
    4.9600    4.9700    4.9800    4.9900    5.0000    5.0100    5.0200    5.0300
    5.0400    5.0500    5.0600    5.0700    5.0800    5.0900    5.1000    5.1100
    5.1200    5.1300    5.1400    5.1500    5.1600    5.1700    5.1800    5.1900
    5.2000    5.2100    5.2200    5.2300    5.2400    5.2500    5.2600    5.2700
    5.2800    5.2900    5.3000    5.3100    5.3200    5.3300    5.3400    5.3500
    5.3600    5.3700    5.3800    5.3900    5.4000    5.4100    5.4200    5.4300
    5.4400    5.4500    5.4600    5.4700    5.4800    5.4900    5.5000    5.5100
    5.5200    5.5300    5.5400    5.5500    5.5600    5.5700    5.5800    5.5900
    5.6000    5.6100    5.6200    5.6300    5.6400    5.6500    5.6600    5.6700
    5.6800    5.6900    5.7000    5.7100    5.7200    5.7300    5.7400    5.7500
    5.7600    5.7700    5.7800    5.7900    5.8000    5.8100    5.8200    5.8300
    5.8400    5.8500    5.8600    5.8700    5.8800    5.8900    5.9000    5.9100
    5.9200    5.9300    5.9400    5.9500    5.9600    5.9700    5.9800    5.9900
    6.0000    6.0100    6.0200    6.0300    6.0400    6.0500    6.0600    6.0700
    6.0800    6.0900    6.1000    6.1100    6.1200    6.1300    6.1400    6.1500
    6.1600    6.1700    6.1800    6.1900    6.2000    6.2100    6.2200    6.2300
    6.2400    6.2500    6.2600    6.2700    6.2800    6.2900    6.3000    6.3100
    6.3200    6.3300    6.3400    6.3500    6.3600    6.3700    6.3800    6.3900
    6.4000    6.4100    6.4200    6.4300    6.4400    6.4500    6.4600    6.4700
    6.4800    6.4900    6.5000    6.5100    6.5200    6.5300    6.5400    6.5500
    6.5600    6.5700    6.5800    6.5900    6.6000    6.6100    6.6200    6.6300
    6.6400    6.6500    6.6600    6.6700    6.6800    6.6900    6.7000    6.7100
    6.7200    6.7300    6.7400    6.7500    6.7600    6.7700    6.7800    6.7900
    6.8000    6.8100    6.8200    6.8300    6.8400    6.8500    6.8600    6.8700
    6.8800    6.8900    6.9000    6.9100    6.9200    6.9300    6.9400    6.9500
    6.9600    6.9700    6.9800    6.9900    7.0000    7.0100    7.0200    7.0300
    7.0400    7.0500    7.0600    7.0700    7.0800    7.0900    7.1000    7.1100
    7.1200    7.1300    7.1400    7.1500    7.1600    7.1700    7.1800    7.1900
    7.2000    7.2100    7.2200    7.2300    7.2400    7.2500    7.2600    7.2700
    7.2800    7.2900    7.3000    7.3100    7.3200    7.3300    7.3400    7.3500
    7.3600    7.3700    7.3800    7.3900    7.4000    7.4100    7.4200    7.4300
    7.4400    7.4500    7.4600    7.4700    7.4800    7.4900    7.5000    7.5100
    7.5200    7.5300
   </PP_R>
   <PP_RAB type="real"  size=" 754" columns="8">
    0.0100    0.0100    0.0100    0.0100    0.0100    0.0100    0.0100    0.0100
    0.0100    0.0100    0.0100    0.0100    0.0100    0.0100    0.0100    0.0100
    0.0100    0.0100    0.0100    0.0100    0.0100    0.0100    0.0100    0.0100
    0.0100    0.0100    0.0100    0.0100    0.0100    0.0100    0.0100    0.0100
    0.0100    0.0100    0.0100    0.0100    0.0100    0.0100    0.0100    0.0100
    0.0100    0.0100    0.0100    0.0100    0.0100    0.0100    0.0100    0.0100
    0.0100    0.0100    0.0100    0.0100    0.0100    0.0100    0.0100    0.0100
    0.0100    0.0100    0.0100    0.0100    0.0100    0.0100    0.0100    0.0100
    0.0100    0.0100    0.0100    0.0100    0.0100    0.0100    0.0100    0.0100
    0.0100    0.0100    0.0100    0.0100    0.0100    0.0100    0.0100    0.0100
    0.0100    0.0100    0.0100    0.0100    0.0100    0.0100    0.0100    0.0100
    0.0100    0.0100    0.0100    0.0100    0.0100    0.0100    0.0100    0.0100
    0.0100    0.0100    0.0100    0.0100    0.0100    0.0100    0.0100    0.0100
    0.0100    0.0100    0.0100    0.0100    0.0100    0.0100    0.0100    0.0100
    0.0100    0.0100    0.0100    0.0100    0.0100    0.0100    0.0100    0.0100
    0.0100    0.0100    0.0100    0.0100    0.0100    0.0100    0.0100    0.0100
    0.0100    0.0100    0.0100    0.0100    0.0100    0.0100    0.0100    0.0100
    0.0100    0.0100    0.0100    0.0100    0.0100    0.0100    0.0100    0.0100
    0.0100    0.0100    0.0100    0.0100    0.0100    0.0100    0.0100    0.0100
    0.0100    0.0100    0.0100    0.0100    0.0100    0.0100    0.0100    0.0100
    0.0100    0.0100    0.0100    0.0100    0.0100    0.0100    0.0100    0.0100
    0.0100    0.0100    0.0100    0.0100    0.0100    0.0100    0.0100    0.0100
    0.0100    0.0100    0.0100    0.0100    0.0100    0.0100    0.0100    0.0100
    0.0100    0.0100    0.0100    0.0100    0.0100    0.0100    0.0100    0.0100
    0.0100    0.0100    0.0100    0.0100    0.0100    0.0100    0.0100    0.0100
    0.0100    0.0100    0.0100    0.0100    0.0100    0.0100    0.0100    0.0100
    0.0100    0.0100    0.0100    0.0100    0.0100    0.0100    0.0100    0.0100
    0.0100    0.0100    0.0100    0.0100    0.0100    0.0100    0.0100    0.0100
    0.0100    0.0100    0.0100    0.0100    0.0100    0.0100    0.0100    0.0100
    0.0100    0.0100    0.0100    0.0100    0.0100    0.0100    0.0100    0.0100
    0.0100    0.0100    0.0100    0.0100    0.0100    0.0100    0.0100    0.0100
    0.0100    0.0100    0.0100    0.0100    0.0100    0.0100    0.0100    0.0100
    0.0100    0.0100    0.0100    0.0100    0.0100    0.0100    0.0100    0.0100
    0.0100    0.0100    0.0100    0.0100    0.0100    0.0100    0.0100    0.0100
    0.0100    0.0100    0.0100    0.0100    0.0100    0.0100    0.0100    0.0100
    0.0100    0.0100    0.0100    0.0100    0.0100    0.0100    0.0100    0.0100
    0.0100    0.0100    0.0100    0.0100    0.0100    0.0100    0.0100    0.0100
    0.0100    0.0100    0.0100    0.0100    0.0100    0.0100    0.0100    0.0100
    0.0100    0.0100    0.0100    0.0100    0.0100    0.0100    0.0100    0.0100
    0.0100    0.0100    0.0100    0.0100    0.0100    0.0100    0.0100    0.0100
    0.0100    0.0100    0.0100    0.0100    0.0100    0.0100    0.0100    0.0100
    0.0100    0.0100    0.0100    0.0100    0.0100    0.0100    0.0100    0.0100
    0.0100    0.0100    0.0100    0.0100    0.0100    0.0100    0.0100    0.0100
    0.0100    0.0100    0.0100    0.0100    0.0100    0.0100    0.0100    0.0100
    0.0100    0.0100    0.0100    0.0100    0.0100    0.0100    0.0100    0.0100
    0.0100    0.0100    0.0100    0.0100    0.0100    0.0100    0.0100    0.0100
    0.0100    0.0100    0.0100    0.0100    0.0100    0.0100    0.0100    0.0100
    0.0100    0.0100    0.0100    0.0100    0.0100    0.0100    0.0100    0.0100
    0.0100    0.0100    0.0100    0.0100    0.0100    0.0100    0.0100    0.0100
    0.0100    0.0100    0.0100    0.0100    0.0100    0.0100    0.0100    0.0100
    0.0100    0.0100    0.0100    0.0100    0.0100    0.0100    0.0100    0.0100
    0.0100    0.0100    0.0100    0.0100    0.0100    0.0100    0.0100    0.0100
    0.0100    0.0100    0.0100    0.0100    0.0100    0.0100    0.0100    0.0100
    0.0100    0.0100    0.0100    0.0100    0.0100    0.0100    0.0100    0.0100
    0.0100    0.0100    0.0100    0.0100    0.0100    0.0100    0.0100    0.0100
    0.0100    0.0100    0.0100    0.0100    0.0100    0.0100    0.0100    0.0100
    0.0100    0.0100    0.0100    0.0100    0.0100    0.0100    0.0100    0.0100
    0.0100    0.0100    0.0100    0.0100    0.0100    0.0100    0.0100    0.0100
    0.0100    0.0100    0.0100    0.0100    0.0100    0.0100    0.0100    0.0100
    0.0100    0.0100    0.0100    0.0100    0.0100    0.0100    0.0100    0.0100
    0.0100    0.0100    0.0100    0.0100    0.0100    0.0100    0.0100    0.0100
    0.0100    0.0100    0.0100    0.0100    0.0100    0.0100    0.0100    0.0100
    0.0100    0.0100    0.0100    0.0100    0.0100    0.0100    0.0100    0.0100
    0.0100    0.0100    0.0100    0.0100    0.0100    0.0100    0.0100    0.0100
    0.0100    0.0100    0.0100    0.0100    0.0100    0.0100    0.0100    0.0100
    0.0100    0.0100    0.0100    0.0100    0.0100    0.0100    0.0100    0.0100
    0.0100    0.0100    0.0100    0.0100    0.0100    0.0100    0.0100    0.0100
    0.0100    0.0100    0.0100    0.0100    0.0100    0.0100    0.0100    0.0100
    0.0100    0.0100    0.0100    0.0100    0.0100    0.0100    0.0100    0.0100
    0.0100    0.0100    0.0100    0.0100    0.0100    0.0100    0.0100    0.0100
    0.0100    0.0100    0.0100    0.0100    0.0100    0.0100    0.0100    0.0100
    0.0100    0.0100    0.0100    0.0100    0.0100    0.0100    0.0100    0.0100
    0.0100    0.0100    0.0100    0.0100    0.0100    0.0100    0.0100    0.0100
    0.0100    0.0100    0.0100    0.0100    0.0100    0.0100    0.0100    0.0100
    0.0100    0.0100    0.0100    0.0100    0.0100    0.0100    0.0100    0.0100
    0.0100    0.0100    0.0100    0.0100    0.0100    0.0100    0.0100    0.0100
    0.0100    0.0100    0.0100    0.0100    0.0100    0.0100    0.0100    0.0100
    0.0100    0.0100    0.0100    0.0100    0.0100    0.0100    0.0100    0.0100
    0.0100    0.0100    0.0100    0.0100    0.0100    0.0100    0.0100    0.0100
    0.0100    0.0100    0.0100    0.0100    0.0100    0.0100    0.0100    0.0100
    0.0100    0.0100    0.0100    0.0100    0.0100    0.0100    0.0100    0.0100
    0.0100    0.0100    0.0100    0.0100    0.0100    0.0100    0.0100    0.0100
    0.0100    0.0100    0.0100    0.0100    0.0100    0.0100    0.0100    0.0100
    0.0100    0.0100    0.0100    0.0100    0.0100    0.0100    0.0100    0.0100
    0.0100    0.0100    0.0100    0.0100    0.0100    0.0100    0.0100    0.0100
    0.0100    0.0100    0.0100    0.0100    0.0100    0.0100    0.0100    0.0100
    0.0100    0.0100    0.0100    0.0100    0.0100    0.0100    0.0100    0.0100
    0.0100    0.0100    0.0100    0.0100    0.0100    0.0100    0.0100    0.0100
    0.0100    0.0100    0.0100    0.0100    0.0100    0.0100    0.0100    0.0100
    0.0100    0.0100    0.0100    0.0100    0.0100    0.0100    0.0100    0.0100
    0.0100    0.0100    0.0100    0.0100    0.0100    0.0100    0.0100    0.0100
    0.0100    0.0100    0.0100    0.0100    0.0100    0.0100    0.0100    0.0100
    0.0100    0.0100    0.0100    0.0100    0.0100    0.0100    0.0100    0.0100
    0.0100    0.0100    0.0100    0.0100    0.0100    0.0100    0.0100    0.0100
    0.0100    0.0100
   </PP_RAB>
 </PP_MESH>
  <PP_LOCAL type="real"  size=" 754" columns="4">
   -2.5310323366E+01   -2.5313568673E+01   -2.5322595404E+01   -2.5335459410E+01
   -2.5349453455E+01   -2.5361688695E+01   -2.5369597550E+01   -2.5371245070E+01
   -2.5365431819E+01   -2.5351638154E+01   -2.5329882148E+01   -2.5300553375E+01
   -2.5264261915E+01   -2.5221720218E+01   -2.5173660707E+01   -2.5120784262E+01
   -2.5063732086E+01   -2.5003073626E+01   -2.4939304534E+01   -2.4872850289E+01
   -2.4804072545E+01   -2.4733276335E+01   -2.4660717112E+01   -2.4586607078E+01
   -2.4511120595E+01   -2.4434398669E+01   -2.4356552576E+01   -2.4277666763E+01
   -2.4197801158E+01   -2.4116993026E+01   -2.4035258511E+01   -2.3952593968E+01
   -2.3868977220E+01   -2.3784368811E+01   -2.3698713371E+01   -2.3611941154E+01
   -2.3523969820E+01   -2.3434706496E+01   -2.3344050142E+01   -2.3251894220E+01
   -2.3158129618E+01   -2.3062647778E+01   -2.2965343934E+01   -2.2866120338E+01
   -2.2764889366E+01   -2.2661576346E+01   -2.2556122003E+01   -2.2448484396E+01
   -2.2338640272E+01   -2.2226585771E+01   -2.2112336494E+01   -2.1995926932E+01
   -2.1877409338E+01   -2.1756852116E+01   -2.1634337849E+01   -2.1509961076E+01
   -2.1383825946E+01   -2.1256043853E+01   -2.1126731163E+01   -2.0996007104E+01
   -2.0863991879E+01   -2.0730805042E+01   -2.0596564149E+01   -2.0461383700E+01
   -2.0325374327E+01   -2.0188642249E+01   -2.0051288917E+01   -1.9913410859E+01
   -1.9775099658E+01   -1.9636442049E+01   -1.9497520102E+01   -1.9358411454E+01
   -1.9219189588E+01   -1.9079924117E+01   -1.8940681076E+01   -1.8801523203E+01
   -1.8662510203E+01   -1.8523698992E+01   -1.8385143908E+01   -1.8246896903E+01
   -1.8109007707E+01   -1.7971523960E+01   -1.7834491330E+01   -1.7697953598E+01
   -1.7561952731E+01   -1.7426528939E+01   -1.7291720710E+01   -1.7157564844E+01
   -1.7024096469E+01   -1.6891349053E+01   -1.6759354414E+01   -1.6628142725E+01
   -1.6497742513E+01   -1.6368180672E+01   -1.6239482460E+01   -1.6111671512E+01
   -1.5984769855E+01   -1.5858797920E+01   -1.5733774570E+01   -1.5609717126E+01
   -1.5486641402E+01   -1.5364561749E+01   -1.5243491102E+01   -1.5123441032E+01
   -1.5004421813E+01   -1.4886442481E+01   -1.4769510913E+01   -1.4653633897E+01
   -1.4538817217E+01   -1.4425065732E+01   -1.4312383464E+01   -1.4200773678E+01
   -1.4090238969E+01   -1.3980781341E+01   -1.3872402287E+01   -1.3765102862E+01
   -1.3658883749E+01   -1.3553745318E+01   -1.3449687682E+01   -1.3346710731E+01
   -1.3244814173E+01   -1.3143997549E+01   -1.3044260246E+01   -1.2945601496E+01
   -1.2848020361E+01   -1.2751515712E+01   -1.2656086190E+01   -1.2561730165E+01
   -1.2468445678E+01   -1.2376230375E+01   -1.2285081441E+01   -1.2194995509E+01
   -1.2105968589E+01   -1.2017995964E+01   -1.1931072102E+01   -1.1845190559E+01
   -1.1760343907E+01   -1.1676523616E+01   -1.1593719964E+01   -1.1511921941E+01
   -1.1431117226E+01   -1.1351293207E+01   -1.1272437840E+01   -1.1194536761E+01
   -1.1117576185E+01   -1.1041542805E+01   -1.0966423801E+01   -1.0892206808E+01
   -1.0818879900E+01   -1.0746431583E+01   -1.0674850797E+01   -1.0604126920E+01
   -1.0534249781E+01   -1.0465209674E+01   -1.0396997368E+01   -1.0329604118E+01
   -1.0263021667E+01   -1.0197242242E+01   -1.0132258532E+01   -1.0068063660E+01
   -1.0004651124E+01   -9.9420147354E+00   -9.8801485184E+00   -9.8190466035E+00
   -9.7587030918E+00   -9.6991119040E+00   -9.6402666135E+00   -9.5821602684E+00
   -9.5247852084E+00   -9.4681328829E+00   -9.4121936770E+00   -9.3569567550E+00
   -9.3024099290E+00   -9.2485395604E+00   -9.1953304984E+00   -9.1427660641E+00
   -9.0908280895E+00   -9.0394970112E+00   -8.9887520163E+00   -8.9385710690E+00
   -8.8889322695E+00   -8.8398230184E+00   -8.7912506876E+00   -8.7432110675E+00
   -8.6956929195E+00   -8.6486886299E+00   -8.6021897553E+00   -8.5561882037E+00
   -8.5106760374E+00   -8.4656454883E+00   -8.4210889520E+00   -8.3769989831E+00
   -8.3333682913E+00   -8.2901897376E+00   -8.2474563300E+00   -8.2051612201E+00
   -8.1632976992E+00   -8.1218591947E+00   -8.0808392670E+00   -8.0402316059E+00
   -8.0000300272E+00   -7.9602284700E+00   -7.9208209934E+00   -7.8818017734E+00
   -7.8431651006E+00   -7.8049053756E+00   -7.7670171107E+00   -7.7294949222E+00
   -7.6923335275E+00   -7.6555277504E+00   -7.6190725099E+00   -7.5829628218E+00
   -7.5471937965E+00   -7.5117606357E+00   -7.4766586310E+00   -7.4418831618E+00
   -7.4074296927E+00   -7.3732937721E+00   -7.3394710301E+00   -7.3059571765E+00
   -7.2727479992E+00   -7.2398393624E+00   -7.2072272046E+00   -7.1749075374E+00
   -7.1428764433E+00   -7.1111300749E+00   -7.0796646525E+00   -7.0484764631E+00
   -7.0175618589E+00   -6.9869172559E+00   -6.9565391322E+00   -6.9264240271E+00
   -6.8965685394E+00   -6.8669693264E+00   -6.8376231026E+00   -6.8085266381E+00
   -6.7796767582E+00   -6.7510703413E+00   -6.7227043188E+00   -6.6945756729E+00
   -6.6666814366E+00   -6.6390186917E+00   -6.6115845685E+00   -6.5843762446E+00
   -6.5573909435E+00   -6.5306259345E+00   -6.5040785310E+00   -6.4777460899E+00
   -6.4516260109E+00   -6.4257157354E+00   -6.4000127456E+00   -6.3745145640E+00
   -6.3492187524E+00   -6.3241229111E+00   -6.2992246782E+00   -6.2745217288E+00
   -6.2500117744E+00   -6.2256925621E+00   -6.2015618739E+00   -6.1776175261E+00
   -6.1538573685E+00   -6.1302792841E+00   -6.1068811879E+00   -6.0836610267E+00
   -6.0606167786E+00   -6.0377464521E+00   -6.0150480854E+00   -5.9925197466E+00
   -5.9701595321E+00   -5.9479655670E+00   -5.9259360041E+00   -5.9040690232E+00
   -5.8823628312E+00   -5.8608156611E+00   -5.8394257717E+00   -5.8181914473E+00
   -5.7971109967E+00   -5.7761827536E+00   -5.7554050752E+00   -5.7347763426E+00
   -5.7142949599E+00   -5.6939593538E+00   -5.6737679736E+00   -5.6537192903E+00
   -5.6338117964E+00   -5.6140440058E+00   -5.5944144529E+00   -5.5749216927E+00
   -5.5555643003E+00   -5.5363408704E+00   -5.5172500171E+00   -5.4982903736E+00
   -5.4794605919E+00   -5.4607593422E+00   -5.4421853130E+00   -5.4237372104E+00
   -5.4054137581E+00   -5.3872136970E+00   -5.3691357849E+00   -5.3511787961E+00
   -5.3333415214E+00   -5.3156227676E+00   -5.2980213572E+00   -5.2805361284E+00
   -5.2631659347E+00   -5.2459096446E+00   -5.2287661412E+00   -5.2117343225E+00
   -5.1948131005E+00   -5.1780014014E+00   -5.1612981654E+00   -5.1447023461E+00
   -5.1282129107E+00   -5.1118288395E+00   -5.0955491257E+00   -5.0793727755E+00
   -5.0632988075E+00   -5.0473262529E+00   -5.0314541548E+00   -5.0156815685E+00
   -5.0000075610E+00   -4.9844312111E+00   -4.9689516088E+00   -4.9535678556E+00
   -4.9382790640E+00   -4.9230843573E+00   -4.9079828697E+00   -4.8929737460E+00
   -4.8780561413E+00   -4.8632292213E+00   -4.8484921613E+00   -4.8338441470E+00
   -4.8192843737E+00   -4.8048120464E+00   -4.7904263798E+00   -4.7761265976E+00
   -4.7619119331E+00   -4.7477816286E+00   -4.7337349352E+00   -4.7197711130E+00
   -4.7058894308E+00   -4.6920891660E+00   -4.6783696044E+00   -4.6647300400E+00
   -4.6511697753E+00   -4.6376881207E+00   -4.6242843945E+00   -4.6109579230E+00
   -4.5977080403E+00   -4.5845340879E+00   -4.5714354151E+00   -4.5584113783E+00
   -4.5454613416E+00   -4.5325846760E+00   -4.5197807597E+00   -4.5070489779E+00
   -4.4943887228E+00   -4.4817993932E+00   -4.4692803949E+00   -4.4568311400E+00
   -4.4444510475E+00   -4.4321395425E+00   -4.4198960567E+00   -4.4077200278E+00
   -4.3956108999E+00   -4.3835681233E+00   -4.3715911539E+00   -4.3596794538E+00
   -4.3478324910E+00   -4.3360497392E+00   -4.3243306777E+00   -4.3126747915E+00
   -4.3010815711E+00   -4.2895505126E+00   -4.2780811172E+00   -4.2666728917E+00
   -4.2553253480E+00   -4.2440380033E+00   -4.2328103798E+00   -4.2216420047E+00
   -4.2105324103E+00   -4.1994811338E+00   -4.1884877172E+00   -4.1775517072E+00
   -4.1666726554E+00   -4.1558501180E+00   -4.1450836556E+00   -4.1343728338E+00
   -4.1237172221E+00   -4.1131163949E+00   -4.1025699307E+00   -4.0920774124E+00
   -4.0816384272E+00   -4.0712525664E+00   -4.0609194256E+00   -4.0506386042E+00
   -4.0404097061E+00   -4.0302323387E+00   -4.0201061137E+00   -4.0100306466E+00
   -4.0000055566E+00   -3.9900304670E+00   -3.9801050045E+00   -3.9702287997E+00
   -3.9604014869E+00   -3.9506227038E+00   -3.9408920920E+00   -3.9312092963E+00
   -3.9215739652E+00   -3.9119857504E+00   -3.9024443073E+00   -3.8929492945E+00
   -3.8835003738E+00   -3.8740972105E+00   -3.8647394730E+00   -3.8554268329E+00
   -3.8461589650E+00   -3.8369355472E+00   -3.8277562605E+00   -3.8186207888E+00
   -3.8095288194E+00   -3.8004800421E+00   -3.7914741498E+00   -3.7825108386E+00
   -3.7735898070E+00   -3.7647107567E+00   -3.7558733920E+00   -3.7470774200E+00
   -3.7383225505E+00   -3.7296084963E+00   -3.7209349725E+00   -3.7123016969E+00
   -3.7037083902E+00   -3.6951547754E+00   -3.6866405780E+00   -3.6781655264E+00
   -3.6697293511E+00   -3.6613317852E+00   -3.6529725643E+00   -3.6446514264E+00
   -3.6363681117E+00   -3.6281223631E+00   -3.6199139256E+00   -3.6117425463E+00
   -3.6036079751E+00   -3.5955099637E+00   -3.5874482662E+00   -3.5794226389E+00
   -3.5714328403E+00   -3.5634786309E+00   -3.5555597736E+00   -3.5476760331E+00
   -3.5398271764E+00   -3.5320129725E+00   -3.5242331924E+00   -3.5164876090E+00
   -3.5087759975E+00   -3.5010981349E+00   -3.4934538000E+00   -3.4858427737E+00
   -3.4782648389E+00   -3.4707197801E+00   -3.4632073839E+00   -3.4557274387E+00
   -3.4482797346E+00   -3.4408640636E+00   -3.4334802195E+00   -3.4261279979E+00
   -3.4188071961E+00   -3.4115176130E+00   -3.4042590494E+00   -3.3970313078E+00
   -3.3898341922E+00   -3.3826675083E+00   -3.3755310637E+00   -3.3684246672E+00
   -3.3613481296E+00   -3.3543012630E+00   -3.3472838812E+00   -3.3402957996E+00
   -3.3333368349E+00   -3.3264068057E+00   -3.3195055318E+00   -3.3126328347E+00
   -3.3057885371E+00   -3.2989724635E+00   -3.2921844395E+00   -3.2854242925E+00
   -3.2786918510E+00   -3.2719869451E+00   -3.2653094062E+00   -3.2586590671E+00
   -3.2520357618E+00   -3.2454393260E+00   -3.2388695965E+00   -3.2323264113E+00
   -3.2258096099E+00   -3.2193190332E+00   -3.2128545230E+00   -3.2064159228E+00
   -3.2000030769E+00   -3.1936158313E+00   -3.1872540329E+00   -3.1809175299E+00
   -3.1746061719E+00   -3.1683198093E+00   -3.1620582941E+00   -3.1558214791E+00
   -3.1496092186E+00   -3.1434213678E+00   -3.1372577831E+00   -3.1311183220E+00
   -3.1250028433E+00   -3.1189112066E+00   -3.1128432728E+00   -3.1067989038E+00
   -3.1007779627E+00   -3.0947803134E+00   -3.0888058212E+00   -3.0828543520E+00
   -3.0769257732E+00   -3.0710199528E+00   -3.0651367602E+00   -3.0592760654E+00
   -3.0534377398E+00   -3.0476216554E+00   -3.0418276855E+00   -3.0360557041E+00
   -3.0303055863E+00   -3.0245772082E+00   -3.0188704466E+00   -3.0131851794E+00
   -3.0075212854E+00   -3.0018786444E+00   -2.9962571369E+00   -2.9906566444E+00
   -2.9850770493E+00   -2.9795182349E+00   -2.9739800853E+00   -2.9684624854E+00
   -2.9629653211E+00   -2.9574884791E+00   -2.9520318469E+00   -2.9465953128E+00
   -2.9411787660E+00   -2.9357820965E+00   -2.9304051950E+00   -2.9250479532E+00